/*--------------------------------*- C++ -*----------------------------------*\
| =========                 |                                                 |
| \\      /  F ield         | OpenFOAM: The Open Source CFD Toolbox           |
|  \\    /   O peration     | Version:  2.3.x                                 |
|   \\  /    A nd           | Web:      www.OpenFOAM.org                      |
|    \\/     M anipulation  |                                                 |
\*---------------------------------------------------------------------------*/
FoamFile
{
    version     2.0;
    format      ascii;
    class       volSymmTensorField;
    location    "0";
    object      TauDNS;
}
// * * * * * * * * * * * * * * * * * * * * * * * * * * * * * * * * * * * * * //

dimensions      [0 2 -2 0 0 0 0];

internalField   nonuniform List<symmTensor> 
14751
(
(3.576819822853558819e-06 -5.879402869727005695e-08 0.000000000000000000e+00 4.111198006650804570e-08 0.000000000000000000e+00 1.078048030165558568e-06)
(1.090936454044561198e-05 -1.793342837927173604e-07 0.000000000000000000e+00 1.253956039801940002e-07 0.000000000000000000e+00 3.288057912748934375e-06)
(1.867384466020027888e-05 -3.074596640112380365e-07 0.000000000000000000e+00 2.147850120606723789e-07 0.000000000000000000e+00 5.627917798481418288e-06)
(2.683319755292037120e-05 -4.423298044921889763e-07 0.000000000000000000e+00 3.087869760052073896e-07 0.000000000000000000e+00 8.086616508040466957e-06)
(3.542192261816109479e-05 -5.842852194552641362e-07 0.000000000000000000e+00 4.077321330233131199e-07 0.000000000000000000e+00 1.067470839100396930e-05)
(4.444001985592323570e-05 -7.333259089004764864e-07 0.000000000000000000e+00 5.116204831149985694e-07 0.000000000000000000e+00 1.339219344737216163e-05)
(5.591355018335282702e-05 -9.038304091579062268e-07 0.000000000000000000e+00 6.982673925010712678e-07 0.000000000000000000e+00 1.626551557520354352e-05)
(6.558715549177250072e-05 -1.043692901842117442e-06 0.000000000000000000e+00 9.333825061168972127e-07 0.000000000000000000e+00 1.932231690522861025e-05)
(7.124285838176697215e-05 -1.124730561606374804e-06 0.000000000000000000e+00 1.196325674518954690e-06 0.000000000000000000e+00 2.266481458595952919e-05)
(7.242506600943368969e-05 -1.170784115129566134e-06 0.000000000000000000e+00 1.496647809994374425e-06 0.000000000000000000e+00 2.616328863583790727e-05)
(7.007033319569993808e-05 -1.165506022700615819e-06 0.000000000000000000e+00 1.833463309162017597e-06 0.000000000000000000e+00 2.983399660105192142e-05)
(6.506299032810463224e-05 -1.102281794658316591e-06 0.000000000000000000e+00 2.222692465099507314e-06 0.000000000000000000e+00 3.370085576700652605e-05)
(5.877654879361402169e-05 -9.603820784017718094e-07 0.000000000000000000e+00 2.671259804822167907e-06 0.000000000000000000e+00 3.756861438549318128e-05)
(5.229834990940098035e-05 -7.328751472901907946e-07 0.000000000000000000e+00 3.176356163326750689e-06 0.000000000000000000e+00 4.129964448586808046e-05)
(4.650057219076618882e-05 -4.414453554331566720e-07 0.000000000000000000e+00 3.766589125324084874e-06 0.000000000000000000e+00 4.486007840735619712e-05)
(4.152580044221140701e-05 -1.008601154251439529e-07 0.000000000000000000e+00 4.410941225076929571e-06 0.000000000000000000e+00 4.804821412058513178e-05)
(3.755540367045638432e-05 2.335975597353123059e-07 0.000000000000000000e+00 5.126232624425945672e-06 0.000000000000000000e+00 5.084755735215566887e-05)
(3.447956499267803573e-05 5.265707899582875349e-07 0.000000000000000000e+00 5.896332420550218265e-06 0.000000000000000000e+00 5.314583869842037214e-05)
(3.207136997658730177e-05 7.451949502765410908e-07 0.000000000000000000e+00 6.714497060029947453e-06 0.000000000000000000e+00 5.494530482394731656e-05)
(3.021752699329551109e-05 8.690436969256847924e-07 0.000000000000000000e+00 7.567974728208768233e-06 0.000000000000000000e+00 5.619803237941857011e-05)
(2.874504464319853808e-05 8.893369472101513998e-07 0.000000000000000000e+00 8.452110778087450926e-06 0.000000000000000000e+00 5.695063126567991512e-05)
(2.754242275887865322e-05 8.301217832637158008e-07 0.000000000000000000e+00 9.351176037377064061e-06 0.000000000000000000e+00 5.725025534675290656e-05)
(2.657067253185012713e-05 6.733167772883510372e-07 0.000000000000000000e+00 1.026876714940549584e-05 0.000000000000000000e+00 5.711385442197224071e-05)
(2.573966382166193440e-05 4.657728165839777785e-07 0.000000000000000000e+00 1.119080176928754104e-05 0.000000000000000000e+00 5.665261738166735414e-05)
(2.506889305684137988e-05 1.897600239649322876e-07 0.000000000000000000e+00 1.211356185507994695e-05 0.000000000000000000e+00 5.585766126679832136e-05)
(2.450885893490869566e-05 -1.315118069623706487e-07 0.000000000000000000e+00 1.303180992896636032e-05 0.000000000000000000e+00 5.481566016074721062e-05)
(2.402103636434834341e-05 -4.768899124153095474e-07 0.000000000000000000e+00 1.393712446001184506e-05 0.000000000000000000e+00 5.357166447799651700e-05)
(2.363820358628700884e-05 -8.591069466475998412e-07 0.000000000000000000e+00 1.482383177832097734e-05 0.000000000000000000e+00 5.216437345569343686e-05)
(2.331631821658489644e-05 -1.257930589723587591e-06 0.000000000000000000e+00 1.569454569544095147e-05 0.000000000000000000e+00 5.063888682654064087e-05)
(2.304705041816368773e-05 -1.666498802232858405e-06 0.000000000000000000e+00 1.654254025527378437e-05 0.000000000000000000e+00 4.901376041722459647e-05)
(2.284668393703632989e-05 -2.082277466259954572e-06 0.000000000000000000e+00 1.736691845230381052e-05 0.000000000000000000e+00 4.733435583289615937e-05)
(2.268297652162110743e-05 -2.499891311568945166e-06 0.000000000000000000e+00 1.816902204457146512e-05 0.000000000000000000e+00 4.560957589115075602e-05)
(2.255958578870928302e-05 -2.916216922414114727e-06 0.000000000000000000e+00 1.894145272055062335e-05 0.000000000000000000e+00 4.388412291492262005e-05)
(2.246153700971533531e-05 -3.330606902251795131e-06 0.000000000000000000e+00 1.968984842475568663e-05 0.000000000000000000e+00 4.216352428030025411e-05)
(2.238284138929286368e-05 -3.743569232455387594e-06 0.000000000000000000e+00 2.040899062816293024e-05 0.000000000000000000e+00 4.046084823955827344e-05)
(2.232876479653954832e-05 -4.152393630924864495e-06 0.000000000000000000e+00 2.109658159107476462e-05 0.000000000000000000e+00 3.879340918447077047e-05)
(2.229726246278397934e-05 -4.555137680505077394e-06 0.000000000000000000e+00 2.175032945473301919e-05 0.000000000000000000e+00 3.717336580664140508e-05)
(2.229074935381505457e-05 -4.945454680337472590e-06 0.000000000000000000e+00 2.236267394065325734e-05 0.000000000000000000e+00 3.561920919655170236e-05)
(2.229891128713701778e-05 -5.328261579565658712e-06 0.000000000000000000e+00 2.294170483677973729e-05 0.000000000000000000e+00 3.412503171462506952e-05)
(2.232462238865094397e-05 -5.702727856255549718e-06 0.000000000000000000e+00 2.346927740559535659e-05 0.000000000000000000e+00 3.272581946243396781e-05)
(2.237190432302969164e-05 -6.068388838958167646e-06 0.000000000000000000e+00 2.394959051446817914e-05 0.000000000000000000e+00 3.142651756371217769e-05)
(2.243135164720253967e-05 -6.420329752320363636e-06 0.000000000000000000e+00 2.437650301069231137e-05 0.000000000000000000e+00 3.022778340975946492e-05)
(2.249963064196912278e-05 -6.766106140867870106e-06 0.000000000000000000e+00 2.473707922451275383e-05 0.000000000000000000e+00 2.914400043160767536e-05)
(2.257999210958555375e-05 -7.105802082037679775e-06 0.000000000000000000e+00 2.503612552045725054e-05 0.000000000000000000e+00 2.814786185500471513e-05)
(2.267656837818303803e-05 -7.433225532811029932e-06 0.000000000000000000e+00 2.527358852223415402e-05 0.000000000000000000e+00 2.723259864373265153e-05)
(2.278884593300916394e-05 -7.736679428338138405e-06 0.000000000000000000e+00 2.544491908429363189e-05 0.000000000000000000e+00 2.639962875867418398e-05)
(2.290266194403995129e-05 -8.017718899903909053e-06 0.000000000000000000e+00 2.555337460458405102e-05 0.000000000000000000e+00 2.564558820638616860e-05)
(2.300921202628663348e-05 -8.283168712294309812e-06 0.000000000000000000e+00 2.560513170409060255e-05 0.000000000000000000e+00 2.496435438474450461e-05)
(2.311179677235452489e-05 -8.533846314605263920e-06 0.000000000000000000e+00 2.560154703938983471e-05 0.000000000000000000e+00 2.433959199842177906e-05)
(2.321507081172738274e-05 -8.765968624444160482e-06 0.000000000000000000e+00 2.553735538065871803e-05 0.000000000000000000e+00 2.375653268293711497e-05)
(2.331481610323056790e-05 -8.989895418015897327e-06 0.000000000000000000e+00 2.541906349752420615e-05 0.000000000000000000e+00 2.319886140401498920e-05)
(2.339617735356511332e-05 -9.202601837869302698e-06 0.000000000000000000e+00 2.525033592965093856e-05 0.000000000000000000e+00 2.266133638195228688e-05)
(2.346194273410066817e-05 -9.387082115419700492e-06 0.000000000000000000e+00 2.503242561181748767e-05 0.000000000000000000e+00 2.217957265772166320e-05)
(2.354407679621702988e-05 -9.541418903732513558e-06 0.000000000000000000e+00 2.476836752460431082e-05 0.000000000000000000e+00 2.175398594615507824e-05)
(2.363985490170216597e-05 -9.666308635900255604e-06 0.000000000000000000e+00 2.446128658721339773e-05 0.000000000000000000e+00 2.134816345912926455e-05)
(2.371736138002168172e-05 -9.763786386664461740e-06 0.000000000000000000e+00 2.411413653723828895e-05 0.000000000000000000e+00 2.094107663903623754e-05)
(2.375907841489298441e-05 -9.836675404935377973e-06 0.000000000000000000e+00 2.372675423874049378e-05 0.000000000000000000e+00 2.055975453324063380e-05)
(2.382763999498011491e-05 -9.885336912355677708e-06 0.000000000000000000e+00 2.330861430890932516e-05 0.000000000000000000e+00 2.028128406985644499e-05)
(2.386884130871214844e-05 -9.904754492970667680e-06 0.000000000000000000e+00 2.285633233525831466e-05 0.000000000000000000e+00 2.000205453470222666e-05)
(2.386344488239640300e-05 -9.895528198723496120e-06 0.000000000000000000e+00 2.237129634539782616e-05 0.000000000000000000e+00 1.969140964887223250e-05)
(2.382279700667970534e-05 -9.852980010441467277e-06 0.000000000000000000e+00 2.187123262855410281e-05 0.000000000000000000e+00 1.934056208720651612e-05)
(2.374290079993644423e-05 -9.784770842750913983e-06 0.000000000000000000e+00 2.134848528507498244e-05 0.000000000000000000e+00 1.896914638052472028e-05)
(2.364889589760608225e-05 -9.688968790743170167e-06 0.000000000000000000e+00 2.079117970821953544e-05 0.000000000000000000e+00 1.858682330237667354e-05)
(2.351404816513554116e-05 -9.557403873408039632e-06 0.000000000000000000e+00 2.021632335079628391e-05 0.000000000000000000e+00 1.818365837539419596e-05)
(2.332769295817862691e-05 -9.401976831713402765e-06 0.000000000000000000e+00 1.964070197756089645e-05 0.000000000000000000e+00 1.778981678696911668e-05)
(2.311576433491166520e-05 -9.233038703493620994e-06 0.000000000000000000e+00 1.907208924403473201e-05 0.000000000000000000e+00 1.740055771155949355e-05)
(2.289042160001744278e-05 -9.052736725167058484e-06 0.000000000000000000e+00 1.850159318609227797e-05 0.000000000000000000e+00 1.701997957270715700e-05)
(2.263156733412989140e-05 -8.855444465847817930e-06 0.000000000000000000e+00 1.793286929992099458e-05 0.000000000000000000e+00 1.664525719239633460e-05)
(2.233235377307964033e-05 -8.642648260304893954e-06 0.000000000000000000e+00 1.735805354352695150e-05 0.000000000000000000e+00 1.623513382072342974e-05)
(2.198741625036188809e-05 -8.410798151420795563e-06 0.000000000000000000e+00 1.677852451047907731e-05 0.000000000000000000e+00 1.577294581256423147e-05)
(2.160223642777850262e-05 -8.160456615597806956e-06 0.000000000000000000e+00 1.619753302720127280e-05 0.000000000000000000e+00 1.528230507892399710e-05)
(2.115792443889486006e-05 -7.880116249405127516e-06 0.000000000000000000e+00 1.562657714434437280e-05 0.000000000000000000e+00 1.478537286800389654e-05)
(2.064945850422159109e-05 -7.583072664494691192e-06 0.000000000000000000e+00 1.506968270516657342e-05 0.000000000000000000e+00 1.429887269822829430e-05)
(2.008621203558895026e-05 -7.287435518620690689e-06 0.000000000000000000e+00 1.452811331344861426e-05 0.000000000000000000e+00 1.381711507796365475e-05)
(1.957445007972357813e-05 -6.998571099022933083e-06 0.000000000000000000e+00 1.402425478505842443e-05 0.000000000000000000e+00 1.338931803947317184e-05)
(1.907212101237233990e-05 -6.702454892369889174e-06 0.000000000000000000e+00 1.355332038573889315e-05 0.000000000000000000e+00 1.293784586741922760e-05)
(1.855709804748570729e-05 -6.409348493511927472e-06 0.000000000000000000e+00 1.309387139025788160e-05 0.000000000000000000e+00 1.245689986316974470e-05)
(1.801713180105589941e-05 -6.107262989431455136e-06 0.000000000000000000e+00 1.265074296290084966e-05 0.000000000000000000e+00 1.201760984196099144e-05)
(1.747288834606585501e-05 -5.814257421392667521e-06 0.000000000000000000e+00 1.222208233000482248e-05 0.000000000000000000e+00 1.162221102256361132e-05)
(1.690099097474333592e-05 -5.521316952713169189e-06 0.000000000000000000e+00 1.180463101139065198e-05 0.000000000000000000e+00 1.122813329239942620e-05)
(1.634378429929097786e-05 -5.233142117097065870e-06 0.000000000000000000e+00 1.138949013009444793e-05 0.000000000000000000e+00 1.085664000267555833e-05)
(1.581847943660461697e-05 -4.954624339269630336e-06 0.000000000000000000e+00 1.097648460006569577e-05 0.000000000000000000e+00 1.050993548910276145e-05)
(1.529662893779264797e-05 -4.678591422893522342e-06 0.000000000000000000e+00 1.056474687547748744e-05 0.000000000000000000e+00 1.017515864167174097e-05)
(1.477386077728697353e-05 -4.402310695652928271e-06 0.000000000000000000e+00 1.015984499619227380e-05 0.000000000000000000e+00 9.852889356809959234e-06)
(1.425015819404874434e-05 -4.130023712984679923e-06 0.000000000000000000e+00 9.766964109457317296e-06 0.000000000000000000e+00 9.536466950074040688e-06)
(1.373565884362769159e-05 -3.865106013764150941e-06 0.000000000000000000e+00 9.385928378609816736e-06 0.000000000000000000e+00 9.239552310491511649e-06)
(1.324140368969467979e-05 -3.605680716878869932e-06 0.000000000000000000e+00 9.018339170693332162e-06 0.000000000000000000e+00 8.969991795237945611e-06)
(1.275685230123818257e-05 -3.357657880237218085e-06 0.000000000000000000e+00 8.664756750334780088e-06 0.000000000000000000e+00 8.724722305833371576e-06)
(1.228816255720209778e-05 -3.118088775612605032e-06 0.000000000000000000e+00 8.327066902677584718e-06 0.000000000000000000e+00 8.509436393683129942e-06)
(1.184187504751761916e-05 -2.883231106829660889e-06 0.000000000000000000e+00 8.001156364470117096e-06 0.000000000000000000e+00 8.321079173122604194e-06)
(1.143014332875141870e-05 -2.649381610180241399e-06 0.000000000000000000e+00 7.688217006112975981e-06 0.000000000000000000e+00 8.155758583832121902e-06)
(1.104162947722821902e-05 -2.415232712396343074e-06 0.000000000000000000e+00 7.389981167951237853e-06 0.000000000000000000e+00 8.007660473539547792e-06)
(1.067599158685258240e-05 -2.181074192960672311e-06 0.000000000000000000e+00 7.120069047329427922e-06 0.000000000000000000e+00 7.887372006793516092e-06)
(1.032160194807282987e-05 -1.950745336126231563e-06 0.000000000000000000e+00 6.850738156987766023e-06 0.000000000000000000e+00 7.762818130040481337e-06)
(9.999564187698133604e-06 -1.727551751407988434e-06 0.000000000000000000e+00 6.591568552350672465e-06 0.000000000000000000e+00 7.648775442224941458e-06)
(9.699269572178740667e-06 -1.514507483939434080e-06 0.000000000000000000e+00 6.340487937355250992e-06 0.000000000000000000e+00 7.524749255642122742e-06)
(9.424421925706036421e-06 -1.312105006211114761e-06 0.000000000000000000e+00 6.097698218785139584e-06 0.000000000000000000e+00 7.405454176298935162e-06)
(9.183899198002998620e-06 -1.119190815566147978e-06 0.000000000000000000e+00 5.865531821077939018e-06 0.000000000000000000e+00 7.295677998917409000e-06)
(8.981540313893443913e-06 -9.372332132564186750e-07 0.000000000000000000e+00 5.645233210982229303e-06 0.000000000000000000e+00 7.200727970323292962e-06)
(8.808798215166416810e-06 -7.644558150434567775e-07 0.000000000000000000e+00 5.434901536276093680e-06 0.000000000000000000e+00 7.121839469849743524e-06)
(8.659445208903420919e-06 -5.992743551300097775e-07 0.000000000000000000e+00 5.234291994156375393e-06 0.000000000000000000e+00 7.062288189385200468e-06)
(8.531105278318787866e-06 -4.390646675278574903e-07 0.000000000000000000e+00 5.045857311298302227e-06 0.000000000000000000e+00 7.019758127506302452e-06)
(8.426257236128480916e-06 -2.858313124976567982e-07 0.000000000000000000e+00 4.870697788872904545e-06 0.000000000000000000e+00 6.991256458923120758e-06)
(8.338591293467660182e-06 -1.377502358327797433e-07 0.000000000000000000e+00 4.706907817572824316e-06 0.000000000000000000e+00 6.975759769079611197e-06)
(8.271305660661423147e-06 2.923868005135568555e-09 0.000000000000000000e+00 4.552043803062515658e-06 0.000000000000000000e+00 6.973666003585115387e-06)
(8.225002194950435490e-06 1.332547278088309144e-07 0.000000000000000000e+00 4.404205094542650983e-06 0.000000000000000000e+00 6.984075230171936580e-06)
(8.194882621313177352e-06 2.575457244984837336e-07 0.000000000000000000e+00 4.263584473598889602e-06 0.000000000000000000e+00 7.000710199357127718e-06)
(8.185920697899573404e-06 3.721236998760704518e-07 0.000000000000000000e+00 4.129636122050243222e-06 0.000000000000000000e+00 7.024909074686474417e-06)
(8.195108177610067028e-06 4.803143285642468363e-07 0.000000000000000000e+00 4.002628571711210367e-06 0.000000000000000000e+00 7.054677568784172439e-06)
(8.221612910696157546e-06 5.794238301200143575e-07 0.000000000000000000e+00 3.881726488255596411e-06 0.000000000000000000e+00 7.092090036285772080e-06)
(8.260635028378111863e-06 6.713939473934544302e-07 0.000000000000000000e+00 3.765877755694557387e-06 0.000000000000000000e+00 7.134081426423199874e-06)
(8.308881863492022951e-06 7.551402470314768761e-07 0.000000000000000000e+00 3.652280518561730662e-06 0.000000000000000000e+00 7.182057117160800313e-06)
(8.359135294388906346e-06 8.312383665409837696e-07 0.000000000000000000e+00 3.541284548599223867e-06 0.000000000000000000e+00 7.230451219700556206e-06)
(8.409806263847041305e-06 8.996344074692467385e-07 0.000000000000000000e+00 3.430851131570606623e-06 0.000000000000000000e+00 7.276813501629118578e-06)
(8.467224035520077441e-06 9.611007629540375688e-07 0.000000000000000000e+00 3.319691357258802071e-06 0.000000000000000000e+00 7.320664749291275132e-06)
(8.531762646245485835e-06 1.015524144625421574e-06 0.000000000000000000e+00 3.207725563259661645e-06 0.000000000000000000e+00 7.360799182591807203e-06)
(8.605281630604863762e-06 1.063534179142714954e-06 0.000000000000000000e+00 3.093419040187139152e-06 0.000000000000000000e+00 7.396576205036478765e-06)
(8.689341933979256838e-06 1.105136519322521169e-06 0.000000000000000000e+00 2.976822559465205968e-06 0.000000000000000000e+00 7.429202703129254810e-06)
(8.784267772770458092e-06 1.141805433570034679e-06 0.000000000000000000e+00 2.857463376994668126e-06 0.000000000000000000e+00 7.459371120772152221e-06)
(8.891009189081075731e-06 1.173992307020811438e-06 0.000000000000000000e+00 2.735182020205130290e-06 0.000000000000000000e+00 7.487396158660800390e-06)
(9.010893968013866483e-06 1.201904853349461453e-06 0.000000000000000000e+00 2.609832314050913133e-06 0.000000000000000000e+00 7.512910792035404144e-06)
(9.148594873501474309e-06 1.226507670017485414e-06 0.000000000000000000e+00 2.481505179290014472e-06 0.000000000000000000e+00 7.534370270964849474e-06)
(9.308950988265728447e-06 1.248327150920871767e-06 0.000000000000000000e+00 2.349696615710785825e-06 0.000000000000000000e+00 7.550639067511816817e-06)
(9.491404452635260244e-06 1.267519991503937306e-06 0.000000000000000000e+00 2.214819654877406588e-06 0.000000000000000000e+00 7.561885438059158773e-06)
(9.700872034717211316e-06 1.284892452653970965e-06 0.000000000000000000e+00 2.076854459088597576e-06 0.000000000000000000e+00 7.566414265813258000e-06)
(9.940913758908876638e-06 1.300353312381452305e-06 0.000000000000000000e+00 1.936769439191596762e-06 0.000000000000000000e+00 7.562147322253483413e-06)
(1.021299184064540303e-05 1.313711107195409410e-06 0.000000000000000000e+00 1.794874806885240322e-06 0.000000000000000000e+00 7.547926051510613410e-06)
(1.052756223319499748e-05 1.325223182306090026e-06 0.000000000000000000e+00 1.652670439283045687e-06 0.000000000000000000e+00 7.521496648993725100e-06)
(1.089355719883129861e-05 1.335184482885943286e-06 0.000000000000000000e+00 1.510516647027295123e-06 0.000000000000000000e+00 7.483776746599891984e-06)
(1.131773449619376880e-05 1.344218642888824758e-06 0.000000000000000000e+00 1.370038502930934231e-06 0.000000000000000000e+00 7.431647095103302843e-06)
(1.181153057095201002e-05 1.351032253212500729e-06 0.000000000000000000e+00 1.230183296647618588e-06 0.000000000000000000e+00 7.358995547389310973e-06)
(1.237244290734521697e-05 1.355852581697785160e-06 0.000000000000000000e+00 1.093914119977274314e-06 0.000000000000000000e+00 7.266084232128667863e-06)
(1.302017362992930465e-05 1.356614525533662440e-06 0.000000000000000000e+00 9.603978110548194934e-07 0.000000000000000000e+00 7.143060524644125154e-06)
(1.374368141594205082e-05 1.353037191515658331e-06 0.000000000000000000e+00 8.325110404616366575e-07 0.000000000000000000e+00 6.991526737614772914e-06)
(1.455489941627898277e-05 1.341342284026076378e-06 0.000000000000000000e+00 7.097741322116586468e-07 0.000000000000000000e+00 6.797656456010971365e-06)
(1.542693469801865498e-05 1.319918392689994806e-06 0.000000000000000000e+00 5.950437809741241137e-07 0.000000000000000000e+00 6.562598180136492825e-06)
(1.633124975001619682e-05 1.283442571591417693e-06 0.000000000000000000e+00 4.877169412988954245e-07 0.000000000000000000e+00 6.273630105586491329e-06)
(1.719333429165483288e-05 1.226543988439881717e-06 0.000000000000000000e+00 3.900289489169514420e-07 0.000000000000000000e+00 5.924986866318161270e-06)
(1.790826028142529730e-05 1.146323665909149385e-06 0.000000000000000000e+00 3.026726700142753578e-07 0.000000000000000000e+00 5.519701552111833315e-06)
(1.796830951884409924e-05 1.034494626053605956e-06 0.000000000000000000e+00 2.312881925920926345e-07 0.000000000000000000e+00 5.026582554410198895e-06)
(1.563504953927632210e-05 9.001625267342404382e-07 0.000000000000000000e+00 2.012552097775325986e-07 0.000000000000000000e+00 4.373865505716163263e-06)
(1.342183942256748247e-05 7.727394334628176683e-07 0.000000000000000000e+00 1.727660186389055560e-07 0.000000000000000000e+00 3.754720843129060857e-06)
(1.132115519658992268e-05 6.517973504743133263e-07 0.000000000000000000e+00 1.457266771981422995e-07 0.000000000000000000e+00 3.167065622439857589e-06)
(9.318013502479202578e-06 5.364684655017620182e-07 0.000000000000000000e+00 1.199414202035962439e-07 0.000000000000000000e+00 2.606686481921778043e-06)
(7.427397699099433668e-06 4.276205908121100797e-07 0.000000000000000000e+00 9.560601290690977888e-08 0.000000000000000000e+00 2.077796783301504462e-06)
(5.626821983921916459e-06 3.239539781277159619e-07 0.000000000000000000e+00 7.242812097986142835e-08 0.000000000000000000e+00 1.574084396206929337e-06)
(3.916264828483251766e-06 2.254725676942313413e-07 0.000000000000000000e+00 5.041037152095686274e-08 0.000000000000000000e+00 1.095565145074349826e-06)
(2.288234553350718487e-06 1.317424533781447748e-07 0.000000000000000000e+00 2.945488190436632096e-08 0.000000000000000000e+00 6.401323490402382469e-07)
(7.502443664204377558e-07 4.319360106731613499e-08 0.000000000000000000e+00 9.656907657413908550e-09 0.000000000000000000e+00 2.098768645318249125e-07)
(2.753539372166675832e-06 1.165176596409930352e-07 0.000000000000000000e+00 1.309760559827058461e-08 0.000000000000000000e+00 8.622480764266908261e-07)
(8.301981799283193638e-06 3.375622549307754787e-07 0.000000000000000000e+00 3.796839486659883868e-08 0.000000000000000000e+00 2.598984056433201652e-06)
(1.405913077185226054e-05 5.684474262188202861e-07 0.000000000000000000e+00 6.394362979368559221e-08 0.000000000000000000e+00 4.401127112053220115e-06)
(2.008994902811606564e-05 8.106037464516882093e-07 0.000000000000000000e+00 9.118636827090603623e-08 0.000000000000000000e+00 6.288951392368694930e-06)
(3.094390030169267181e-05 1.260053362115455703e-06 0.000000000000000000e+00 1.634030118993196138e-07 0.000000000000000000e+00 9.292215825930319015e-06)
(4.349800832014014563e-05 1.843590959575837288e-06 0.000000000000000000e+00 2.994268975702515863e-07 0.000000000000000000e+00 1.350082516591296440e-05)
(5.247651625404185918e-05 2.263321278907079004e-06 0.000000000000000000e+00 4.880037599362698860e-07 0.000000000000000000e+00 1.841437713701091466e-05)
(5.561998058592454962e-05 2.403221295768045413e-06 0.000000000000000000e+00 7.455347586704735690e-07 0.000000000000000000e+00 2.391144972850935507e-05)
(5.433134698084522533e-05 2.366875623978377615e-06 0.000000000000000000e+00 1.085577308835153190e-06 0.000000000000000000e+00 2.959417409912082637e-05)
(5.033084609500937682e-05 2.283613060489644317e-06 0.000000000000000000e+00 1.525355212796614572e-06 0.000000000000000000e+00 3.531668493427501292e-05)
(4.532472803651658630e-05 2.256803273258453522e-06 0.000000000000000000e+00 2.072571524625950471e-06 0.000000000000000000e+00 4.084531866589571311e-05)
(4.058077073923162725e-05 2.334623005678832081e-06 0.000000000000000000e+00 2.724071734488452193e-06 0.000000000000000000e+00 4.592824753231370901e-05)
(3.675850712697577126e-05 2.497873022845736156e-06 0.000000000000000000e+00 3.462632124062415905e-06 0.000000000000000000e+00 5.035245639072583171e-05)
(3.376664030112973915e-05 2.679662815532325739e-06 0.000000000000000000e+00 4.266946281631066047e-06 0.000000000000000000e+00 5.417395274506338267e-05)
(3.152847535291906900e-05 2.815814551906948833e-06 0.000000000000000000e+00 5.110054382209103962e-06 0.000000000000000000e+00 5.726060933952734614e-05)
(2.989186683678093264e-05 2.857968703971172053e-06 0.000000000000000000e+00 5.978392952390887985e-06 0.000000000000000000e+00 5.955134049736541006e-05)
(2.859165775971261387e-05 2.805696003759729357e-06 0.000000000000000000e+00 6.866676969430730268e-06 0.000000000000000000e+00 6.120921780729612774e-05)
(2.756855465735758760e-05 2.651438097381790105e-06 0.000000000000000000e+00 7.760541432508802541e-06 0.000000000000000000e+00 6.217330121837820510e-05)
(2.671323892304299809e-05 2.417544284666210322e-06 0.000000000000000000e+00 8.670328420741877184e-06 0.000000000000000000e+00 6.262413250617767681e-05)
(2.599345002581904582e-05 2.122046791115446970e-06 0.000000000000000000e+00 9.584658055255077934e-06 0.000000000000000000e+00 6.260432921505646006e-05)
(2.537894177182092848e-05 1.778075013809162170e-06 0.000000000000000000e+00 1.050656981553986132e-05 0.000000000000000000e+00 6.222101557960592344e-05)
(2.485397441986968349e-05 1.401429593762353292e-06 0.000000000000000000e+00 1.142341679776128655e-05 0.000000000000000000e+00 6.152948676869079818e-05)
(2.440121935693714429e-05 1.000497813963469272e-06 0.000000000000000000e+00 1.233787998455194307e-05 0.000000000000000000e+00 6.060712705506910000e-05)
(2.401551875428334430e-05 5.742816221425251375e-07 0.000000000000000000e+00 1.323593837419915804e-05 0.000000000000000000e+00 5.944052220334640821e-05)
(2.369100538362153794e-05 1.369474830937418977e-07 0.000000000000000000e+00 1.412184886985389410e-05 0.000000000000000000e+00 5.813057741396173106e-05)
(2.341617290247238319e-05 -3.120332970520176343e-07 0.000000000000000000e+00 1.499489043290163970e-05 0.000000000000000000e+00 5.667384278202089947e-05)
(2.318864527058048385e-05 -7.681150106454395585e-07 0.000000000000000000e+00 1.584258111936608633e-05 0.000000000000000000e+00 5.508321153054143601e-05)
(2.299979209608415921e-05 -1.228536130904235576e-06 0.000000000000000000e+00 1.667142901044234109e-05 0.000000000000000000e+00 5.341707427067705861e-05)
(2.284578214374311216e-05 -1.691659626357087612e-06 0.000000000000000000e+00 1.747948168067595318e-05 0.000000000000000000e+00 5.168103217149980054e-05)
(2.272583638967924242e-05 -2.154071826389669379e-06 0.000000000000000000e+00 1.826024907675130788e-05 0.000000000000000000e+00 4.988546802251300527e-05)
(2.264211410394464718e-05 -2.611704603109142513e-06 0.000000000000000000e+00 1.901844288663014743e-05 0.000000000000000000e+00 4.807402811202446180e-05)
(2.257913877434507846e-05 -3.066952054673056149e-06 0.000000000000000000e+00 1.975095005850878492e-05 0.000000000000000000e+00 4.624029411181991139e-05)
(2.253240549767339667e-05 -3.519909234294559306e-06 0.000000000000000000e+00 2.045412771631909227e-05 0.000000000000000000e+00 4.440817163268083142e-05)
(2.250257164375586263e-05 -3.964073978222608018e-06 0.000000000000000000e+00 2.113192501273542000e-05 0.000000000000000000e+00 4.261139877763859857e-05)
(2.248706633216714890e-05 -4.405642042154896543e-06 0.000000000000000000e+00 2.177983637221128437e-05 0.000000000000000000e+00 4.082872248396159629e-05)
(2.248614168078509298e-05 -4.835116802269149219e-06 0.000000000000000000e+00 2.239748123463771308e-05 0.000000000000000000e+00 3.911122712017123379e-05)
(2.249904294500646403e-05 -5.254371178871470157e-06 0.000000000000000000e+00 2.298157152445019118e-05 0.000000000000000000e+00 3.745299898012763057e-05)
(2.252637504787378714e-05 -5.665527707777965070e-06 0.000000000000000000e+00 2.352455176297892463e-05 0.000000000000000000e+00 3.585371111317109161e-05)
(2.258528636123702815e-05 -6.060646735265282102e-06 0.000000000000000000e+00 2.402433708835059241e-05 0.000000000000000000e+00 3.435272948275089702e-05)
(2.265570008771983378e-05 -6.438258202539795083e-06 0.000000000000000000e+00 2.449328161680044020e-05 0.000000000000000000e+00 3.294444666745297207e-05)
(2.274470667804186035e-05 -6.800286549257090748e-06 0.000000000000000000e+00 2.489400314621524482e-05 0.000000000000000000e+00 3.167207549693585580e-05)