/*--------------------------------*- C++ -*----------------------------------*\
| =========                 |                                                 |
| \\      /  F ield         | OpenFOAM: The Open Source CFD Toolbox           |
|  \\    /   O peration     | Version:  2.3.x                                 |
|   \\  /    A nd           | Web:      www.OpenFOAM.org                      |
|    \\/     M anipulation  |                                                 |
\*---------------------------------------------------------------------------*/
FoamFile
{
    version     2.0;
    format      ascii;
    class       volScalarField;
    location    "0";
    object      ccx;
}
// * * * * * * * * * * * * * * * * * * * * * * * * * * * * * * * * * * * * * //

dimensions      [0 1 0 0 0 0 0];

internalField   nonuniform List<scalar> 
3000
(
0.0964199
0.285605
0.458542
0.614297
0.763717
0.914306
1.06736
1.22295
1.38448
1.55653
1.74233
1.93143
2.12352
2.32028
2.51463
2.70966
2.90411
0.0963855
0.285549
0.458593
0.614575
0.764253
0.91508
1.06835
1.22414
1.38582
1.55794
1.7437
1.93274
2.12476
2.32142
2.51569
2.71065
2.90498
0.0963413
0.285477
0.458659
0.614931
0.764941
0.916073
1.06962
1.22566
1.38754
1.55974
1.74546
1.93442
2.12635
2.32287
2.51705
2.71191
2.9061
0.0962848
0.285385
0.458744
0.615387
0.765822
0.917345
1.07124
1.22761
1.38974
1.56206
1.74771
1.93658
2.12838
2.32474
2.5188
2.71353
2.90753
0.0962122
0.285268
0.458852
0.615972
0.766953
0.918977
1.07333
1.23011
1.39256
1.56503
1.7506
1.93934
2.13099
2.32714
2.52104
2.71562
2.90937
0.0961192
0.285116
0.458991
0.616723
0.768403
0.92107
1.076
1.23332
1.39618
1.56884
1.75431
1.94289
2.13433
2.33021
2.52391
2.71829
2.91172
0.0959999
0.284923
0.45917
0.617685
0.770262
0.923753
1.07943
1.23744
1.40082
1.57372
1.75906
1.94743
2.13862
2.33414
2.52758
2.72171
2.91474
0.095847
0.284674
0.459398
0.618919
0.772646
0.927194
1.08383
1.24271
1.40677
1.57998
1.76515
1.95326
2.14412
2.33919
2.5323
2.7261
2.91861
0.0956509
0.284356
0.459692
0.620501
0.775703
0.931606
1.08947
1.24947
1.41441
1.58801
1.77296
1.96073
2.15117
2.34567
2.53835
2.73172
2.92357
0.0953994
0.283947
0.460068
0.62253
0.779623
0.937264
1.0967
1.25815
1.42419
1.5983
1.78298
1.97031
2.16021
2.35397
2.5461
2.73894
2.92993
0.095077
0.283423
0.46055
0.625132
0.78465
0.944519
1.10597
1.26927
1.43674
1.6115
1.79582
1.9826
2.1718
2.36461
2.55605
2.74819
2.93809
0.0946636
0.282752
0.461168
0.628468
0.791097
0.953824
1.11786
1.28353
1.45283
1.62843
1.81229
1.99835
2.18667
2.37825
2.5688
2.76005
2.94854
0.0941335
0.281891
0.461962
0.632748
0.799365
0.965756
1.13311
1.30182
1.47346
1.65013
1.8334
2.01855
2.20572
2.39575
2.58515
2.77526
2.96195
0.0934539
0.280786
0.462979
0.638236
0.809968
0.981058
1.15266
1.32527
1.49992
1.67796
1.86047
2.04446
2.23016
2.41819
2.60611
2.79476
2.97914
0.0925825
0.27937
0.464283
0.645274
0.823567
1.00068
1.17774
1.35535
1.53385
1.71364
1.89517
2.07767
2.26148
2.44695
2.63299
2.81976
3.00118
3.09408
3.28153
3.46899
3.65645
3.8439
4.03136
4.21882
4.40627
4.59373
4.78118
4.96864
5.1561
5.34355
5.53101
5.71847
5.90592
3.09482
3.28218
3.46953
3.65689
3.84425
4.03161
4.21896
4.40632
4.59368
4.78104
4.96839
5.15575
5.34311
5.53047
5.71782
5.90518
3.09577
3.283
3.47023
3.65746
3.84469
4.03192
4.21915
4.40638
4.59362
4.78085
4.96808
5.15531
5.34254
5.52977
5.717
5.90423
3.09699
3.28406
3.47113
3.6582
3.84526
4.03233
4.2194
4.40647
4.59353
4.7806
4.96767
5.15474
5.3418
5.52887
5.71594
5.90301
3.09856
3.28542
3.47228
3.65913
3.84599
4.03285
4.21971
4.40657
4.59343
4.78029
4.96715
5.15401
5.34087
5.52772
5.71458
5.90144
3.10057
3.28716
3.47375
3.66034
3.84693
4.03352
4.22011
4.4067
4.5933
4.77989
4.96648
5.15307
5.33966
5.52625
5.71284
5.89943
3.10314
3.28939
3.47564
3.66188
3.84813
4.03438
4.22063
4.40688
4.59312
4.77937
4.96562
5.15187
5.33812
5.52436
5.71061
5.89686
3.10644
3.29225
3.47806
3.66386
3.84967
4.03548
4.22129
4.4071
4.5929
4.77871
4.96452
5.15033
5.33614
5.52194
5.70775
5.89356
3.11067
3.29592
3.48116
3.6664
3.85165
4.03689
4.22213
4.40738
4.59262
4.77787
4.96311
5.14835
5.3336
5.51884
5.70408
5.88933
3.1161
3.30062
3.48514
3.66966
3.85418
4.0387
4.22322
4.40774
4.59226
4.77678
4.9613
5.14582
5.33034
5.51486
5.69938
5.8839
3.12306
3.30665
3.49025
3.67384
3.85743
4.04102
4.22461
4.4082
4.5918
4.77539
4.95898
5.14257
5.32616
5.50975
5.69335
5.87694
3.13198
3.31439
3.49679
3.67919
3.86159
4.04399
4.2264
4.4088
4.5912
4.7736
4.95601
5.13841
5.32081
5.50321
5.68561
5.86802
3.14343
3.3243
3.50518
3.68606
3.86693
4.04781
4.22869
4.40956
4.59044
4.77131
4.95219
5.13307
5.31394
5.49482
5.6757
5.85657
3.15809
3.33701
3.51594
3.69486
3.87378
4.0527
4.23162
4.41054
4.58946
4.76838
4.9473
5.12622
5.30514
5.48406
5.66299
5.84191
3.1769
3.35331
3.52973
3.70614
3.88255
4.05897
4.23538
4.41179
4.58821
4.76462
4.94103
5.11745
5.29386
5.47027
5.64669
5.8231
6.09589
6.29034
6.48537
6.67972
6.87648
7.06857
7.25767
7.44347
7.61552
7.77705
7.93264
8.08569
8.23628
8.3857
8.54146
8.7144
8.90358
6.09502
6.28935
6.48431
6.67858
6.87524
7.06726
7.2563
7.44206
7.61418
7.77586
7.93165
8.08492
8.23575
8.38543
8.54141
8.71445
8.90361
6.0939
6.28809
6.48295
6.67713
6.87365
7.06558
7.25454
7.44026
7.61246
7.77434
7.93038
8.08393
8.23506
8.38507
8.54134
8.71452
8.90366
6.09247
6.28647
6.4812
6.67526
6.87162
7.06342
7.25229
7.43794
7.61026
7.77239
7.92876
8.08265
8.23418
8.38461
8.54126
8.71461
8.90372
6.09063
6.28438
6.47896
6.67286
6.86901
7.06066
7.2494
7.43497
7.60744
7.76989
7.92667
8.08102
8.23305
8.38403
8.54115
8.71473
8.90379
6.08828
6.28171
6.47609
6.66979
6.86567
7.05711
7.24569
7.43116
7.60382
7.76668
7.924
8.07893
8.2316
8.38328
8.54101
8.71488
8.90388
6.08526
6.27829
6.47242
6.66586
6.86138
7.05257
7.24094
7.42628
7.59918
7.76256
7.92057
8.07625
8.22974
8.38232
8.54083
8.71508
8.904
6.08139
6.2739
6.4677
6.66081
6.85588
7.04674
7.23485
7.42002
7.59323
7.75729
7.91617
8.07281
8.22735
8.38108
8.5406
8.71533
8.90415
6.07643
6.26828
6.46165
6.65433
6.84883
7.03927
7.22704
7.41199
7.58559
7.75053
7.91053
8.06839
8.2243
8.3795
8.54031
8.71564
8.90435
6.07007
6.26106
6.4539
6.64603
6.83979
7.02969
7.21702
7.4017
7.57581
7.74185
7.9033
8.06274
8.22038
8.37747
8.53993
8.71605
8.9046
6.06191
6.25181
6.44395
6.63539
6.8282
7.0174
7.20418
7.3885
7.56326
7.73073
7.89403
8.05548
8.21535
8.37487
8.53945
8.71658
8.90492
6.05146
6.23995
6.4312
6.62175
6.81333
7.00165
7.18771
7.37157
7.54717
7.71647
7.88214
8.04618
8.2089
8.37153
8.53883
8.71725
8.90534
6.03805
6.22474
6.41485
6.60425
6.79428
6.98145
7.1666
7.34987
7.52654
7.69818
7.86689
8.03424
8.20064
8.36725
8.53804
8.71811
8.90587
6.02086
6.20524
6.39389
6.58181
6.76984
6.95554
7.13953
7.32204
7.50008
7.67473
7.84734
8.01894
8.19003
8.36176
8.53702
8.71921
8.90655
5.99882
6.18024
6.36701
6.55305
6.73852
6.92233
7.10483
7.28636
7.46615
7.64465
7.82226
7.99932
8.17643
8.35473
8.53572
8.72063
8.90742
0.0927915
0.278381
0.464736
0.649663
0.832641
1.01419
1.19524
1.37656
1.55822
1.74009
1.92219
2.10475
2.28812
2.47246
2.65765
2.84351
3.02377
0.0931562
0.279295
0.46612
0.651846
0.836041
1.01911
1.20178
1.38465
1.56779
1.75109
1.93458
2.11841
2.30286
2.48806
2.67393
2.86031
3.04231
0.0934406
0.280008
0.4672
0.653549
0.838693
1.02295
1.20688
1.39096
1.57526
1.75968
1.94424
2.12906
2.31436
2.50024
2.68662
2.87341
3.05677
0.0936624
0.280564
0.468042
0.654877
0.840761
1.02594
1.21085
1.39588
1.58108
1.76637
1.95177
2.13737
2.32333
2.50973
2.69652
2.88362
3.06804
0.0938354
0.280997
0.468699
0.655913
0.842374
1.02827
1.21395
1.39972
1.58562
1.77159
1.95765
2.14385
2.33032
2.51713
2.70425
2.89159
3.07684
0.0939703
0.281335
0.469211
0.65672
0.843632
1.03009
1.21637
1.40272
1.58916
1.77566
1.96223
2.1489
2.33578
2.52291
2.71027
2.8978
3.0837
0.0940755
0.281599
0.469611
0.65735
0.844613
1.03151
1.21826
1.40505
1.59192
1.77884
1.9658
2.15284
2.34003
2.52741
2.71496
2.90265
3.08905
0.0941576
0.281805
0.469922
0.657842
0.845378
1.03262
1.21973
1.40687
1.59407
1.78132
1.96859
2.15592
2.34335
2.53092
2.71862
2.90643
3.09322
0.0942216
0.281965
0.470165
0.658225
0.845975
1.03348
1.22088
1.40829
1.59575
1.78325
1.97076
2.15831
2.34594
2.53366
2.72148
2.90938
3.09647
0.0942715
0.28209
0.470355
0.658524
0.84644
1.03416
1.22177
1.4094
1.59706
1.78475
1.97246
2.16018
2.34795
2.53579
2.72371
2.91168
3.09901
0.0943104
0.282188
0.470502
0.658757
0.846803
1.03468
1.22247
1.41026
1.59809
1.78593
1.97378
2.16164
2.34953
2.53746
2.72545
2.91347
3.10099
0.0943408
0.282264
0.470618
0.658938
0.847086
1.03509
1.22301
1.41094
1.59888
1.78685
1.97481
2.16278
2.35075
2.53876
2.7268
2.91487
3.10254
0.0943644
0.282323
0.470707
0.65908
0.847307
1.03541
1.22344
1.41146
1.5995
1.78756
1.97562
2.16366
2.35171
2.53977
2.72786
2.91596
3.10374
0.0943829
0.282369
0.470777
0.659191
0.847479
1.03566
1.22377
1.41187
1.59999
1.78812
1.97624
2.16435
2.35246
2.54056
2.72868
2.91681
3.10468
0.0943973
0.282405
0.470832
0.659277
0.847613
1.03585
1.22403
1.41219
1.60037
1.78855
1.97673
2.16489
2.35304
2.54118
2.72932
2.91747
3.10541
3.19804
3.37164
3.54523
3.71883
3.89242
4.06601
4.23961
4.4132
4.5868
4.76039
4.93399
5.10758
5.28117
5.45477
5.62836
5.80196
3.21687
3.38796
3.55904
3.73012
3.90121
4.07229
4.24337
4.41446
4.58554
4.75663
4.92771
5.09879
5.26988
5.44096
5.61204
5.78313
3.23155
3.40068
3.56981
3.73893
3.90806
4.07718
4.24631
4.41544
4.58456
4.75369
4.92282
5.09194
5.26107
5.43019
5.59932
5.76845
3.243
3.4106
3.5782
3.7458
3.9134
4.081
4.2486
4.4162
4.5838
4.7514
4.919
5.0866
5.2542
5.4218
5.5894
5.757
3.25193
3.41834
3.58475
3.75116
3.91757
4.08398
4.25039
4.4168
4.5832
4.74961
4.91602
5.08243
5.24884
5.41525
5.58166
5.74807
3.25889
3.42437
3.58985
3.75534
3.92082
4.0863
4.25178
4.41726
4.58274
4.74822
4.9137
5.07918
5.24466
5.41015
5.57563
5.74111
3.26432
3.42908
3.59384
3.75859
3.92335
4.08811
4.25286
4.41762
4.58238
4.74714
4.91189
5.07665
5.24141
5.40616
5.57092
5.73568
3.26856
3.43275
3.59694
3.76113
3.92533
4.08952
4.25371
4.4179
4.5821
4.74629
4.91048
5.07467
5.23887
5.40306
5.56725
5.73144
3.27186
3.43561
3.59936
3.76312
3.92687
4.09062
4.25437
4.41812
4.58188
4.74563
4.90938
5.07313
5.23688
5.40064
5.56439
5.72814
3.27443
3.43784
3.60125
3.76466
3.92807
4.09148
4.25489
4.4183
4.5817
4.74511
4.90852
5.07193
5.23534
5.39875
5.56216
5.72557
3.27644
3.43958
3.60272
3.76587
3.92901
4.09215
4.25529
4.41843
4.58157
4.74471
4.90785
5.07099
5.23413
5.39728
5.56042
5.72356
3.27801
3.44094
3.60387
3.7668
3.92974
4.09267
4.2556
4.41853
4.58147
4.7444
4.90733
5.07026
5.2332
5.39613
5.55906
5.72199
3.27923
3.442
3.60477
3.76754
3.93031
4.09308
4.25585
4.41862
4.58138
4.74415
4.90692
5.06969
5.23246
5.39523
5.558
5.72077
3.28018
3.44282
3.60547
3.76811
3.93075
4.09339
4.25604
4.41868
4.58132
4.74396
4.90661
5.06925
5.23189
5.39453
5.55718
5.71982
3.28092
3.44347
3.60601
3.76855
3.9311
4.09364
4.25618
4.41873
4.58127
4.74382
4.90636
5.0689
5.23145
5.39399
5.55653
5.71908
5.97623
6.15649
6.34235
6.52754
6.71188
6.89525
7.07781
7.25991
7.44178
7.62344
7.80476
7.98581
8.16736
8.35034
8.53526
8.72162
8.90721
5.95769
6.13969
6.32607
6.51194
6.69714
6.88159
7.06542
7.24891
7.43221
7.61535
7.79822
7.98089
8.16396
8.34815
8.53388
8.7207
8.90684
5.94323
6.12659
6.31338
6.49976
6.68564
6.87094
7.05576
7.24032
7.42474
7.60904
7.79312
7.97705
8.16131
8.34645
8.5328
8.71999
8.90656
5.93196
6.11638
6.30348
6.49027
6.67667
6.86263
7.04823
7.23363
7.41892
7.60412
7.78915
7.97406
8.15924
8.34512
8.53196
8.71944
8.90634
5.92316
6.10841
6.29575
6.48287
6.66968
6.85615
7.04235
7.22841
7.41438
7.60028
7.78605
7.97173
8.15763
8.34409
8.5313
8.719
8.90616
5.9163
6.1022
6.28973
6.47709
6.66422
6.8511
7.03777
7.22434
7.41084
7.59728
7.78363
7.96991
8.15637
8.34328
8.53079
8.71866
8.90603
5.91095
6.09735
6.28504
6.47259
6.65997
6.84716
7.0342
7.22116
7.40808
7.59495
7.78174
7.96849
8.15539
8.34265
8.53039
8.7184
8.90592
5.90678
6.09357
6.28138
6.46908
6.65665
6.84408
7.03141
7.21868
7.40593
7.59313
7.78027
7.96738
8.15462
8.34216
8.53008
8.7182
8.90584
5.90353
6.09062
6.27852
6.46634
6.65406
6.84169
7.02924
7.21675
7.40425
7.59171
7.77912
7.96652
8.15403
8.34178
8.52983
8.71804
8.90578
5.90099
6.08832
6.27629
6.46421
6.65205
6.83982
7.02754
7.21525
7.40294
7.5906
7.77823
7.96584
8.15356
8.34148
8.52965
8.71791
8.90573
5.89901
6.08653
6.27455
6.46254
6.65047
6.83836
7.02622
7.21407
7.40191
7.58974
7.77753
7.96532
8.1532
8.34124
8.5295
8.71781
8.90569
5.89746
6.08513
6.2732
6.46124
6.64925
6.83722
7.02519
7.21315
7.40112
7.58906
7.77699
7.96491
8.15291
8.34106
8.52938
8.71774
8.90566
5.89626
6.08404
6.27214
6.46023
6.64829
6.83634
7.02438
7.21244
7.4005
7.58854
7.77656
7.96459
8.15269
8.34092
8.52929
8.71768
8.90564
5.89532
6.08319
6.27132
6.45944
6.64754
6.83565
7.02376
7.21188
7.40001
7.58813
7.77623
7.96434
8.15252
8.34081
8.52922
8.71763
8.90562
5.89459
6.08253
6.27068
6.45882
6.64696
6.83511
7.02327
7.21145
7.39963
7.58781
7.77597
7.96415
8.15239
8.34072
8.52917
8.71759
8.9056
9.09642
9.2856
9.45854
9.6143
9.76372
9.91431
10.0674
10.223
10.3845
10.5565
10.7423
10.9314
11.1235
11.3203
11.5146
11.7097
11.9041
9.09639
9.28555
9.45859
9.61457
9.76425
9.91508
10.0683
10.2241
10.3858
10.5579
10.7437
10.9327
11.1248
11.3214
11.5157
11.7106
11.905
9.09634
9.28548
9.45866
9.61493
9.76494
9.91607
10.0696
10.2257
10.3875
10.5597
10.7455
10.9344
11.1263
11.3229
11.5171
11.7119
11.9061
9.09628
9.28539
9.45874
9.61539
9.76582
9.91735
10.0712
10.2276
10.3897
10.5621
10.7477
10.9366
11.1284
11.3247
11.5188
11.7135
11.9075
9.09621
9.28527
9.45885
9.61597
9.76695
9.91898
10.0733
10.2301
10.3926
10.565
10.7506
10.9393
11.131
11.3271
11.521
11.7156
11.9094
9.09612
9.28512
9.45899
9.61672
9.7684
9.92107
10.076
10.2333
10.3962
10.5688
10.7543
10.9429
11.1343
11.3302
11.5239
11.7183
11.9117
9.096
9.28492
9.45917
9.61768
9.77026
9.92375
10.0794
10.2374
10.4008
10.5737
10.7591
10.9474
11.1386
11.3341
11.5276
11.7217
11.9147
9.09585
9.28467
9.4594
9.61892
9.77265
9.92719
10.0838
10.2427
10.4068
10.58
10.7652
10.9533
11.1441
11.3392
11.5323
11.7261
11.9186
9.09565
9.28436
9.45969
9.6205
9.7757
9.93161
10.0895
10.2495
10.4144
10.588
10.773
10.9607
11.1512
11.3457
11.5383
11.7317
11.9236
9.0954
9.28395
9.46007
9.62253
9.77962
9.93726
10.0967
10.2581
10.4242
10.5983
10.783
10.9703
11.1602
11.354
11.5461
11.7389
11.9299
9.09508
9.28342
9.46055
9.62513
9.78465
9.94452
10.106
10.2693
10.4367
10.6115
10.7958
10.9826
11.1718
11.3646
11.556
11.7482
11.9381
9.09466
9.28275
9.46117
9.62847
9.7911
9.95382
10.1179
10.2835
10.4528
10.6284
10.8123
10.9984
11.1867
11.3783
11.5688
11.76
11.9485
9.09413
9.28189
9.46196
9.63275
9.79936
9.96576
10.1331
10.3018
10.4735
10.6501
10.8334
11.0186
11.2057
11.3958
11.5851
11.7753
11.962
9.09345
9.28079
9.46298
9.63824
9.80997
9.98106
10.1527
10.3253
10.4999
10.678
10.8605
11.0445
11.2302
11.4182
11.6061
11.7948
11.9791
9.09258
9.27937
9.46428
9.64527
9.82357
10.0007
10.1777
10.3554
10.5339
10.7136
10.8952
11.0777
11.2615
11.447
11.633
11.8198
12.0012
12.0941
12.2815
12.469
12.6564
12.8439
13.0314
13.2188
13.4063
13.5937
13.7812
13.9686
14.1561
14.3436
14.531
14.7185
14.9059
12.0948
12.2822
12.4695
12.6569
12.8442
13.0316
13.219
13.4063
13.5937
13.781
13.9684
14.1558
14.3431
14.5305
14.7178
14.9052
12.0958
12.283
12.4702
12.6575
12.8447
13.0319
13.2192
13.4064
13.5936
13.7808
13.9681
14.1553
14.3425
14.5298
14.717
14.9042
12.097
12.2841
12.4711
12.6582
12.8453
13.0323
13.2194
13.4065
13.5935
13.7806
13.9677
14.1547
14.3418
14.5289
14.7159
14.903
12.0986
12.2854
12.4723
12.6591
12.846
13.0329
13.2197
13.4066
13.5934
13.7803
13.9671
14.154
14.3409
14.5277
14.7146
14.9014
12.1006
12.2872
12.4737
12.6603
12.8469
13.0335
13.2201
13.4067
13.5933
13.7799
13.9665
14.1531
14.3397
14.5263
14.7128
14.8994
12.1031
12.2894
12.4756
12.6619
12.8481
13.0344
13.2206
13.4069
13.5931
13.7794
13.9656
14.1519
14.3381
14.5244
14.7106
14.8969
12.1064
12.2922
12.4781
12.6639
12.8497
13.0355
13.2213
13.4071
13.5929
13.7787
13.9645
14.1503
14.3361
14.5219
14.7078
14.8936
12.1107
12.2959
12.4812
12.6664
12.8516
13.0369
13.2221
13.4074
13.5926
13.7779
13.9631
14.1484
14.3336
14.5188
14.7041
14.8893
12.1161
12.3006
12.4851
12.6697
12.8542
13.0387
13.2232
13.4077
13.5923
13.7768
13.9613
14.1458
14.3303
14.5149
14.6994
14.8839
12.1231
12.3067
12.4902
12.6738
12.8574
13.041
13.2246
13.4082
13.5918
13.7754
13.959
14.1426
14.3262
14.5098
14.6933
14.8769
12.132
12.3144
12.4968
12.6792
12.8616
13.044
13.2264
13.4088
13.5912
13.7736
13.956
14.1384
14.3208
14.5032
14.6856
14.868
12.1434
12.3243
12.5052
12.6861
12.8669
13.0478
13.2287
13.4096
13.5904
13.7713
13.9522
14.1331
14.3139
14.4948
14.6757
14.8566
12.1581
12.337
12.5159
12.6949
12.8738
13.0527
13.2316
13.4105
13.5895
13.7684
13.9473
14.1262
14.3051
14.4841
14.663
14.8419
12.1769
12.3533
12.5297
12.7061
12.8826
13.059
13.2354
13.4118
13.5882
13.7646
13.941
14.1174
14.2939
14.4703
14.6467
14.8231
15.0959
15.2903
15.4854
15.6797
15.8765
16.0686
16.2577
16.4435
16.6155
16.777
16.9326
17.0857
17.2363
17.3857
17.5415
17.7144
17.9036
15.095
15.2894
15.4843
15.6786
15.8752
16.0673
16.2563
16.4421
16.6142
16.7759
16.9317
17.0849
17.2357
17.3854
17.5414
17.7145
17.9036
15.0939
15.2881
15.4829
15.6771
15.8737
16.0656
16.2545
16.4403
16.6125
16.7743
16.9304
17.0839
17.2351
17.3851
17.5413
17.7145
17.9037
15.0925
15.2865
15.4812
15.6753
15.8716
16.0634
16.2523
16.4379
16.6103
16.7724
16.9288
17.0827
17.2342
17.3846
17.5413
17.7146
17.9037
15.0906
15.2844
15.479
15.6729
15.869
16.0607
16.2494
16.435
16.6074
16.7699
16.9267
17.081
17.233
17.384
17.5411
17.7147
17.9038
15.0883
15.2817
15.4761
15.6698
15.8657
16.0571
16.2457
16.4312
16.6038
16.7667
16.924
17.0789
17.2316
17.3833
17.541
17.7149
17.9039
15.0853
15.2783
15.4724
15.6659
15.8614
16.0526
16.2409
16.4263
16.5992
16.7626
16.9206
17.0762
17.2297
17.3823
17.5408
17.7151
17.904
15.0814
15.2739
15.4677
15.6608
15.8559
16.0467
16.2348
16.42
16.5932
16.7573
16.9162
17.0728
17.2274
17.3811
17.5406
17.7153
17.9042
15.0764
15.2683
15.4617
15.6543
15.8488
16.0393
16.227
16.412
16.5856
16.7505
16.9105
17.0684
17.2243
17.3795
17.5403
17.7156
17.9043
15.0701
15.2611
15.4539
15.646
15.8398
16.0297
16.217
16.4017
16.5758
16.7419
16.9033
17.0627
17.2204
17.3775
17.5399
17.7161
17.9046
15.0619
15.2518
15.444
15.6354
15.8282
16.0174
16.2042
16.3885
16.5633
16.7307
16.894
17.0555
17.2153
17.3749
17.5394
17.7166
17.9049
15.0515
15.24
15.4312
15.6217
15.8133
16.0016
16.1877
16.3716
16.5472
16.7165
16.8821
17.0462
17.2089
17.3715
17.5388
17.7172
17.9053
15.038
15.2247
15.4149
15.6042
15.7943
15.9814
16.1666
16.3499
16.5265
16.6982
16.8669
17.0342
17.2006
17.3673
17.538
17.7181
17.9059
15.0209
15.2052
15.3939
15.5818
15.7698
15.9555
16.1395
16.322
16.5001
16.6747
16.8473
17.0189
17.19
17.3618
17.537
17.7192
17.9065
14.9988
15.1802
15.367
15.553
15.7385
15.9223
16.1048
16.2864
16.4661
16.6446
16.8223
16.9993
17.1764
17.3547
17.5357
17.7206
17.9074
9.09279
9.27838
9.46474
9.64966
9.83264
10.0142
10.1952
10.3766
10.5582
10.7401
10.9222
11.1048
11.2881
11.4725
11.6577
11.8435
12.0238
9.09316
9.2793
9.46612
9.65185
9.83604
10.0191
10.2018
10.3847
10.5678
10.7511
10.9346
11.1184
11.3029
11.4881
11.6739
11.8603
12.0423
9.09344
9.28001
9.4672
9.65355
9.83869
10.0229
10.2069
10.391
10.5753
10.7597
10.9442
11.1291
11.3144
11.5002
11.6866
11.8734
12.0568
9.09366
9.28056
9.46804
9.65488
9.84076
10.0259
10.2109
10.3959
10.5811
10.7664
10.9518
11.1374
11.3233
11.5097
11.6965
11.8836
12.068
9.09384
9.281
9.4687
9.65591
9.84237
10.0283
10.214
10.3997
10.5856
10.7716
10.9576
11.1438
11.3303
11.5171
11.7042
11.8916
12.0768
9.09397
9.28134
9.46921
9.65672
9.84363
10.0301
10.2164
10.4027
10.5892
10.7757
10.9622
11.1489
11.3358
11.5229
11.7103
11.8978
12.0837
9.09408
9.2816
9.46961
9.65735
9.84461
10.0315
10.2183
10.4051
10.5919
10.7788
10.9658
11.1528
11.34
11.5274
11.715
11.9027
12.089
9.09416
9.2818
9.46992
9.65784
9.84538
10.0326
10.2197
10.4069
10.5941
10.7813
10.9686
11.1559
11.3433
11.5309
11.7186
11.9064
12.0932
9.09422
9.28196
9.47017
9.65822
9.84597
10.0335
10.2209
10.4083
10.5958
10.7832
10.9708
11.1583
11.3459
11.5337
11.7215
11.9094
12.0965
9.09427
9.28209
9.47035
9.65852
9.84644
10.0342
10.2218
10.4094
10.5971
10.7848
10.9725
11.1602
11.348
11.5358
11.7237
11.9117
12.099
9.09431
9.28219
9.4705
9.65876
9.8468
10.0347
10.2225
10.4103
10.5981
10.7859
10.9738
11.1616
11.3495
11.5375
11.7254
11.9135
12.101
9.09434
9.28226
9.47062
9.65894
9.84709
10.0351
10.223
10.4109
10.5989
10.7868
10.9748
11.1628
11.3508
11.5388
11.7268
11.9149
12.1025
9.09436
9.28232
9.47071
9.65908
9.84731
10.0354
10.2234
10.4115
10.5995
10.7876
10.9756
11.1637
11.3517
11.5398
11.7279
11.916
12.1037
9.09438
9.28237
9.47078
9.65919
9.84748
10.0357
10.2238
10.4119
10.6
10.7881
10.9762
11.1644
11.3525
11.5406
11.7287
11.9168
12.1047
9.0944
9.28241
9.47083
9.65928
9.84761
10.0359
10.224
10.4122
10.6004
10.7886
10.9767
11.1649
11.353
11.5412
11.7293
11.9175
12.1054
12.198
12.3716
12.5452
12.7188
12.8924
13.066
13.2396
13.4132
13.5868
13.7604
13.934
14.1076
14.2812
14.4548
14.6284
14.802
12.2169
12.388
12.559
12.7301
12.9012
13.0723
13.2434
13.4145
13.5855
13.7566
13.9277
14.0988
14.2699
14.441
14.612
14.7831
12.2316
12.4007
12.5698
12.7389
12.9081
13.0772
13.2463
13.4154
13.5846
13.7537
13.9228
14.0919
14.2611
14.4302
14.5993
14.7684
12.243
12.4106
12.5782
12.7458
12.9134
13.081
13.2486
13.4162
13.5838
13.7514
13.919
14.0866
14.2542
14.4218
14.5894
14.757
12.2519
12.4183
12.5847
12.7512
12.9176
13.084
13.2504
13.4168
13.5832
13.7496
13.916
14.0824
14.2488
14.4153
14.5817
14.7481
12.2589
12.4244
12.5899
12.7553
12.9208
13.0863
13.2518
13.4173
13.5827
13.7482
13.9137
14.0792
14.2447
14.4101
14.5756
14.7411
12.2643
12.4291
12.5938
12.7586
12.9234
13.0881
13.2529
13.4176
13.5824
13.7471
13.9119
14.0766
14.2414
14.4062
14.5709
14.7357
12.2686
12.4327
12.5969
12.7611
12.9253
13.0895
13.2537
13.4179
13.5821
13.7463
13.9105
14.0747
14.2389
14.4031
14.5673
14.7314
12.2719
12.4356
12.5994
12.7631
12.9269
13.0906
13.2544
13.4181
13.5819
13.7456
13.9094
14.0731
14.2369
14.4006
14.5644
14.7281
12.2744
12.4378
12.6013
12.7647
12.9281
13.0915
13.2549
13.4183
13.5817
13.7451
13.9085
14.0719
14.2353
14.3987
14.5622
14.7256
12.2764
12.4396
12.6027
12.7659
12.929
13.0921
13.2553
13.4184
13.5816
13.7447
13.9079
14.071
14.2341
14.3973
14.5604
14.7236
12.278
12.4409
12.6039
12.7668
12.9297
13.0927
13.2556
13.4185
13.5815
13.7444
13.9073
14.0703
14.2332
14.3961
14.5591
14.722
12.2792
12.442
12.6048
12.7675
12.9303
13.0931
13.2558
13.4186
13.5814
13.7442
13.9069
14.0697
14.2325
14.3952
14.558
14.7208
12.2802
12.4428
12.6055
12.7681
12.9308
13.0934
13.256
13.4187
13.5813
13.744
13.9066
14.0692
14.2319
14.3945
14.5572
14.7198
12.2809
12.4435
12.606
12.7686
12.9311
13.0936
13.2562
13.4187
13.5813
13.7438
13.9064
14.0689
14.2314
14.394
14.5565
14.7191
14.9762
15.1565
15.3423
15.5275
15.7119
15.8952
16.0778
16.2599
16.4418
16.6234
16.8048
16.9858
17.1674
17.3503
17.5353
17.7216
17.9072
14.9577
15.1397
15.3261
15.5119
15.6971
15.8816
16.0654
16.2489
16.4322
16.6153
16.7982
16.9809
17.164
17.3482
17.5339
17.7207
17.9068
14.9432
15.1266
15.3134
15.4998
15.6856
15.8709
16.0558
16.2403
16.4247
16.609
16.7931
16.9771
17.1613
17.3465
17.5328
17.72
17.9066
14.932
15.1164
15.3035
15.4903
15.6767
15.8626
16.0482
16.2336
16.4189
16.6041
16.7891
16.9741
17.1592
17.3451
17.532
17.7194
17.9063
14.9232
15.1084
15.2958
15.4829
15.6697
15.8562
16.0424
16.2284
16.4144
16.6003
16.786
16.9717
17.1576
17.3441
17.5313
17.719
17.9062
14.9163
15.1022
15.2897
15.4771
15.6642
15.8511
16.0378
16.2243
16.4108
16.5973
16.7836
16.9699
17.1564
17.3433
17.5308
17.7187
17.906
14.911
15.0973
15.285
15.4726
15.66
15.8472
16.0342
16.2212
16.4081
16.5949
16.7817
16.9685
17.1554
17.3426
17.5304
17.7184
17.9059
14.9068
15.0936
15.2814
15.4691
15.6567
15.8441
16.0314
16.2187
16.4059
16.5931
16.7803
16.9674
17.1546
17.3422
17.5301
17.7182
17.9058
14.9035
15.0906
15.2785
15.4663
15.6541
15.8417
16.0292
16.2168
16.4042
16.5917
16.7791
16.9665
17.154
17.3418
17.5298
17.718
17.9058
14.901
15.0883
15.2763
15.4642
15.652
15.8398
16.0275
16.2152
16.4029
16.5906
16.7782
16.9658
17.1536
17.3415
17.5296
17.7179
17.9057
14.899
15.0865
15.2746
15.4625
15.6505
15.8384
16.0262
16.2141
16.4019
16.5897
16.7775
16.9653
17.1532
17.3412
17.5295
17.7178
17.9057
14.8975
15.0851
15.2732
15.4612
15.6492
15.8372
16.0252
16.2132
16.4011
16.5891
16.777
16.9649
17.1529
17.3411
17.5294
17.7177
17.9057
14.8963
15.084
15.2721
15.4602
15.6483
15.8363
16.0244
16.2124
16.4005
16.5885
16.7766
16.9646
17.1527
17.3409
17.5293
17.7177
17.9056
14.8953
15.0832
15.2713
15.4594
15.6475
15.8356
16.0238
16.2119
16.4
16.5881
16.7762
16.9643
17.1525
17.3408
17.5292
17.7176
17.9056
14.8946
15.0825
15.2707
15.4588
15.647
15.8351
16.0233
16.2114
16.3996
16.5878
16.776
16.9641
17.1524
17.3407
17.5292
17.7176
17.9056
)
;

boundaryField
{
    topWall
    {
        type            calculated;
        value           nonuniform List<scalar> 
100
(
0.0941176
0.282353
0.470588
0.658824
0.847059
1.03529
1.22353
1.41176
1.6
1.78824
1.97647
2.16471
2.35294
2.54118
2.72941
2.91765
3.10588
3.28125
3.44375
3.60625
3.76875
3.93125
4.09375
4.25625
4.41875
4.58125
4.74375
4.90625
5.06875
5.23125
5.39375
5.55625
5.71875
5.89412
6.08235
6.27059
6.45882
6.64706
6.83529
7.02353
7.21176
7.4
7.58824
7.77647
7.96471
8.15294
8.34118
8.52941
8.71765
8.90588
9.09412
9.28235
9.47059
9.65882
9.84706
10.0353
10.2235
10.4118
10.6
10.7882
10.9765
11.1647
11.3529
11.5412
11.7294
11.9176
12.1059
12.2812
12.4437
12.6063
12.7688
12.9312
13.0938
13.2563
13.4188
13.5813
13.7437
13.9063
14.0688
14.2312
14.3938
14.5562
14.7188
14.8941
15.0824
15.2706
15.4588
15.6471
15.8353
16.0235
16.2118
16.4
16.5882
16.7765
16.9647
17.1529
17.3412
17.5294
17.7176
17.9059
)
;
    }
    bottomWall
    {
        type            calculated;
        value           nonuniform List<scalar> 
100
(
0.0966436
0.284852
0.457201
0.612946
0.762477
0.913129
1.06616
1.22173
1.38335
1.55561
1.74176
1.93118
2.12333
2.32005
2.51436
2.70935
2.90358
3.09375
3.28125
3.46875
3.65625
3.84375
4.03125
4.21875
4.40625
4.59375
4.78125
4.96875
5.15625
5.34375
5.53125
5.71875
5.90625
6.09642
6.29065
6.48564
6.67995
6.87667
7.06882
7.25824
7.44439
7.61665
7.77827
7.93384
8.08687
8.23752
8.38705
8.5428
8.71515
8.90336
9.09664
9.28485
9.4572
9.61295
9.76248
9.91313
10.0662
10.2217
10.3833
10.5556
10.7418
10.9312
11.1233
11.3201
11.5144
11.7093
11.9036
12.0938
12.2812
12.4687
12.6562
12.8438
13.0312
13.2187
13.4062
13.5937
13.7812
13.9688
14.1562
14.3437
14.5312
14.7187
14.9062
15.0964
15.2907
15.4856
15.6799
15.8767
16.0688
16.2582
16.4444
16.6167
16.7783
16.9338
17.0869
17.2375
17.3871
17.5428
17.7151
17.9034
)
;
    }
    inlet
    {
        type            calculated;
        value           uniform 0;
    }
    outlet
    {
        type            calculated;
        value           nonuniform List<scalar> 
30
(
18
18
18
18
18
18
18
18
18
18
18
18
18
18
18
18
18
18
18
18
18
18
18
18
18
18
18
18
18
18
)
;
    }
    defaultFaces
    {
        type            empty;
    }
}


// ************************************************************************* //
