/*--------------------------------*- C++ -*----------------------------------*\
| =========                 |                                                 |
| \\      /  F ield         | OpenFOAM: The Open Source CFD Toolbox           |
|  \\    /   O peration     | Version:  2.3.x                                 |
|   \\  /    A nd           | Web:      www.OpenFOAM.org                      |
|    \\/     M anipulation  |                                                 |
\*---------------------------------------------------------------------------*/
FoamFile
{
    version     2.0;
    format      ascii;
    class       volScalarField;
    location    "0";
    object      epsilon;
}
// * * * * * * * * * * * * * * * * * * * * * * * * * * * * * * * * * * * * * //

dimensions      [0 2 -3 0 0 0 0];

internalField   nonuniform List<scalar> 
3000
(
7.58634e-08
4.64274e-08
2.67802e-08
3.97968e-08
4.72765e-08
3.85887e-08
3.23537e-08
2.93688e-08
2.87406e-08
2.96541e-08
3.14514e-08
3.81302e-08
4.80003e-08
5.10807e-08
4.35738e-08
5.91025e-08
6.66047e-08
4.09831e-07
2.43802e-07
1.29531e-07
1.76565e-07
1.80156e-07
1.36902e-07
1.12646e-07
9.98164e-08
9.264e-08
8.83594e-08
8.71365e-08
9.30728e-08
9.37008e-08
7.55764e-08
5.81849e-08
7.77041e-08
1.04585e-07
1.06813e-06
6.7014e-07
3.60122e-07
4.13294e-07
2.94212e-07
1.95732e-07
1.54455e-07
1.30434e-07
1.12923e-07
1.00924e-07
9.4451e-08
9.54525e-08
9.70376e-08
8.42169e-08
6.78299e-08
8.0253e-08
1.00327e-07
1.1887e-06
9.23289e-07
6.49452e-07
6.19649e-07
3.50526e-07
2.11438e-07
1.57915e-07
1.28982e-07
1.10066e-07
9.86487e-08
9.3005e-08
9.5137e-08
9.99312e-08
9.02994e-08
7.58861e-08
8.37054e-08
9.81572e-08
8.68285e-07
7.98306e-07
7.09208e-07
6.92164e-07
4.12207e-07
2.34605e-07
1.6566e-07
1.31143e-07
1.10877e-07
9.92685e-08
9.32219e-08
9.49458e-08
1.00014e-07
9.43688e-08
8.38101e-08
8.87814e-08
9.93712e-08
6.33852e-07
6.26373e-07
6.2921e-07
6.50822e-07
4.56845e-07
2.6661e-07
1.79695e-07
1.379e-07
1.14854e-07
1.01638e-07
9.48581e-08
9.68697e-08
1.02679e-07
1.00419e-07
9.32815e-08
9.6219e-08
1.04067e-07
5.03377e-07
5.13224e-07
5.46119e-07
5.85275e-07
4.86719e-07
3.143e-07
2.04941e-07
1.5093e-07
1.23553e-07
1.08312e-07
1.01251e-07
1.04102e-07
1.10766e-07
1.10936e-07
1.06359e-07
1.07573e-07
1.13223e-07
4.16166e-07
4.32234e-07
4.77907e-07
5.24252e-07
4.96988e-07
3.77771e-07
2.56266e-07
1.81156e-07
1.43502e-07
1.24186e-07
1.16042e-07
1.19491e-07
1.26514e-07
1.28211e-07
1.2527e-07
1.24867e-07
1.28534e-07
3.51333e-07
3.67625e-07
4.15637e-07
4.6519e-07
4.79286e-07
4.27863e-07
3.33954e-07
2.44506e-07
1.87303e-07
1.57186e-07
1.44554e-07
1.48324e-07
1.54668e-07
1.56087e-07
1.53133e-07
1.50732e-07
1.52061e-07
2.98464e-07
3.12017e-07
3.54864e-07
4.02665e-07
4.34533e-07
4.31985e-07
3.92451e-07
3.30326e-07
2.73397e-07
2.24066e-07
2.01376e-07
2.01096e-07
2.00221e-07
1.97869e-07
1.92456e-07
1.87033e-07
1.84875e-07
2.51834e-07
2.61705e-07
2.9524e-07
3.36188e-07
3.71022e-07
3.90288e-07
3.89813e-07
3.70996e-07
3.441e-07
3.20135e-07
2.91607e-07
2.70017e-07
2.59385e-07
2.50105e-07
2.40257e-07
2.30595e-07
2.23569e-07
2.08208e-07
2.14906e-07
2.3832e-07
2.69264e-07
2.99023e-07
3.22418e-07
3.37142e-07
3.42523e-07
3.40732e-07
3.35666e-07
3.29383e-07
3.1514e-07
3.01629e-07
2.89701e-07
2.77677e-07
2.65406e-07
2.54064e-07
1.66426e-07
1.70887e-07
1.85711e-07
2.06387e-07
2.27898e-07
2.47276e-07
2.63147e-07
2.74737e-07
2.81914e-07
2.85389e-07
2.85927e-07
2.84243e-07
2.8127e-07
2.76524e-07
2.69909e-07
2.61398e-07
2.50332e-07
1.26968e-07
1.29884e-07
1.38417e-07
1.5068e-07
1.64148e-07
1.77209e-07
1.88934e-07
1.98666e-07
2.05827e-07
2.10179e-07
2.11784e-07
2.10987e-07
2.09993e-07
2.09422e-07
2.08591e-07
2.05846e-07
1.99107e-07
9.21049e-08
9.34697e-08
9.74515e-08
1.03664e-07
1.10967e-07
1.18469e-07
1.25481e-07
1.3158e-07
1.36443e-07
1.39841e-07
1.41664e-07
1.41902e-07
1.41534e-07
1.40676e-07
1.39393e-07
1.38118e-07
1.34408e-07
7.07018e-08
7.31855e-08
7.45216e-08
7.4933e-08
7.46159e-08
7.37137e-08
7.23553e-08
7.06394e-08
6.86517e-08
6.64603e-08
6.41281e-08
6.16992e-08
5.92159e-08
5.67255e-08
5.42128e-08
5.17875e-08
1.28593e-07
1.47573e-07
1.62075e-07
1.72929e-07
1.81021e-07
1.86814e-07
1.90764e-07
1.93129e-07
1.94131e-07
1.93951e-07
1.927e-07
1.90573e-07
1.87545e-07
1.83932e-07
1.79362e-07
1.74578e-07
1.19749e-07
1.36504e-07
1.50538e-07
1.62259e-07
1.722e-07
1.80599e-07
1.87707e-07
1.93628e-07
1.98451e-07
2.02246e-07
2.05032e-07
2.06909e-07
2.0779e-07
2.07882e-07
2.06825e-07
2.05058e-07
1.12282e-07
1.24137e-07
1.33625e-07
1.4116e-07
1.4725e-07
1.52215e-07
1.56319e-07
1.59706e-07
1.62474e-07
1.64685e-07
1.66364e-07
1.67556e-07
1.68222e-07
1.68442e-07
1.68058e-07
1.67191e-07
1.0993e-07
1.18815e-07
1.25794e-07
1.31098e-07
1.3508e-07
1.38004e-07
1.40093e-07
1.41498e-07
1.42334e-07
1.42685e-07
1.42612e-07
1.42173e-07
1.4139e-07
1.4032e-07
1.38922e-07
1.3727e-07
1.11927e-07
1.18516e-07
1.23586e-07
1.27257e-07
1.29789e-07
1.31398e-07
1.32269e-07
1.3254e-07
1.32319e-07
1.31689e-07
1.30715e-07
1.29448e-07
1.27929e-07
1.26197e-07
1.24255e-07
1.22159e-07
1.18817e-07
1.23425e-07
1.2683e-07
1.29075e-07
1.3035e-07
1.30832e-07
1.30683e-07
1.30027e-07
1.28966e-07
1.27576e-07
1.25925e-07
1.24056e-07
1.22018e-07
1.19837e-07
1.17535e-07
1.15171e-07
1.31905e-07
1.34474e-07
1.36116e-07
1.36833e-07
1.3676e-07
1.36045e-07
1.34821e-07
1.33202e-07
1.3128e-07
1.29122e-07
1.26792e-07
1.24327e-07
1.21777e-07
1.19162e-07
1.16512e-07
1.139e-07
1.52821e-07
1.52925e-07
1.52384e-07
1.51195e-07
1.49441e-07
1.47242e-07
1.44701e-07
1.41911e-07
1.38948e-07
1.35869e-07
1.32729e-07
1.29556e-07
1.26398e-07
1.23272e-07
1.20214e-07
1.17313e-07
1.82242e-07
1.79202e-07
1.75873e-07
1.72257e-07
1.68382e-07
1.64325e-07
1.6015e-07
1.55919e-07
1.51684e-07
1.47486e-07
1.43362e-07
1.39334e-07
1.35443e-07
1.31704e-07
1.28159e-07
1.24906e-07
2.16894e-07
2.10305e-07
2.0385e-07
1.97536e-07
1.91325e-07
1.8524e-07
1.79297e-07
1.7352e-07
1.67932e-07
1.6255e-07
1.57396e-07
1.52479e-07
1.47834e-07
1.43477e-07
1.39458e-07
1.35875e-07
2.44425e-07
2.3538e-07
2.26743e-07
2.18531e-07
2.10686e-07
2.03191e-07
1.96031e-07
1.89202e-07
1.82707e-07
1.76547e-07
1.70731e-07
1.65268e-07
1.60184e-07
1.55504e-07
1.51285e-07
1.47615e-07
2.41764e-07
2.33728e-07
2.25928e-07
2.18417e-07
2.112e-07
2.04277e-07
1.97651e-07
1.91327e-07
1.85315e-07
1.79622e-07
1.74265e-07
1.6926e-07
1.64639e-07
1.60437e-07
1.5672e-07
1.53546e-07
1.94607e-07
1.90404e-07
1.86204e-07
1.82031e-07
1.77912e-07
1.73865e-07
1.6991e-07
1.66066e-07
1.62357e-07
1.58805e-07
1.55435e-07
1.52276e-07
1.49362e-07
1.46731e-07
1.4444e-07
1.4251e-07
1.32036e-07
1.29976e-07
1.28008e-07
1.26123e-07
1.24314e-07
1.22579e-07
1.20916e-07
1.19325e-07
1.17811e-07
1.16379e-07
1.15039e-07
1.13802e-07
1.12682e-07
1.11695e-07
1.1087e-07
1.1022e-07
4.89205e-08
4.70738e-08
4.57501e-08
4.49244e-08
4.49079e-08
4.67364e-08
5.34337e-08
6.49529e-08
8.48143e-08
1.13558e-07
1.43509e-07
1.72425e-07
2.15434e-07
2.76509e-07
3.03637e-07
1.82242e-07
1.08204e-07
1.67654e-07
1.62602e-07
1.58195e-07
1.53744e-07
1.49024e-07
1.40736e-07
1.4451e-07
1.74618e-07
2.37375e-07
3.43738e-07
4.80475e-07
6.30964e-07
8.44188e-07
1.16647e-06
1.40216e-06
9.63022e-07
5.84873e-07
2.01469e-07
1.97866e-07
1.92822e-07
1.85976e-07
1.76588e-07
1.61326e-07
1.55182e-07
1.79078e-07
2.4051e-07
3.53753e-07
5.18895e-07
7.35687e-07
1.06111e-06
1.5556e-06
2.00894e-06
1.82139e-06
1.38145e-06
1.6563e-07
1.6334e-07
1.59681e-07
1.54589e-07
1.47949e-07
1.38861e-07
1.34989e-07
1.52179e-07
1.97346e-07
2.78521e-07
3.96577e-07
5.5955e-07
8.02716e-07
1.12546e-06
1.37245e-06
1.42892e-06
1.34748e-06
1.35339e-07
1.33023e-07
1.30127e-07
1.26736e-07
1.23138e-07
1.19557e-07
1.19829e-07
1.34964e-07
1.71311e-07
2.32643e-07
3.1693e-07
4.29578e-07
5.8948e-07
7.76858e-07
8.91932e-07
9.16092e-07
9.22772e-07
1.1986e-07
1.17437e-07
1.14845e-07
1.12278e-07
1.1015e-07
1.09223e-07
1.11983e-07
1.26536e-07
1.58266e-07
2.08573e-07
2.74822e-07
3.61256e-07
4.77459e-07
6.01208e-07
6.66763e-07
6.72692e-07
6.68256e-07
1.12627e-07
1.10156e-07
1.07799e-07
1.05823e-07
1.04703e-07
1.0551e-07
1.10243e-07
1.24961e-07
1.5389e-07
1.96847e-07
2.51368e-07
3.20968e-07
4.0944e-07
4.95482e-07
5.34565e-07
5.29987e-07
5.24615e-07
1.11122e-07
1.08605e-07
1.06465e-07
1.05026e-07
1.04814e-07
1.07067e-07
1.13769e-07
1.2916e-07
1.56066e-07
1.9327e-07
2.38863e-07
2.95459e-07
3.62883e-07
4.22587e-07
4.45811e-07
4.37641e-07
4.29482e-07
1.14272e-07
1.11695e-07
1.09772e-07
1.08864e-07
1.0954e-07
1.13076e-07
1.21717e-07
1.37805e-07
1.62707e-07
1.94678e-07
2.3246e-07
2.77512e-07
3.2707e-07
3.66348e-07
3.78498e-07
3.69705e-07
3.59632e-07
1.21572e-07
1.18905e-07
1.17178e-07
1.16774e-07
1.18242e-07
1.2281e-07
1.32871e-07
1.48951e-07
1.71132e-07
1.97585e-07
2.27551e-07
2.6128e-07
2.9479e-07
3.17572e-07
3.21483e-07
3.13436e-07
3.03493e-07
1.3231e-07
1.2956e-07
1.27994e-07
1.2801e-07
1.30029e-07
1.35175e-07
1.45383e-07
1.5983e-07
1.77771e-07
1.97687e-07
2.19083e-07
2.41322e-07
2.60593e-07
2.70656e-07
2.69055e-07
2.62484e-07
2.54444e-07
1.4412e-07
1.414e-07
1.39931e-07
1.40087e-07
1.42215e-07
1.47062e-07
1.55294e-07
1.65722e-07
1.77505e-07
1.89717e-07
2.02009e-07
2.13455e-07
2.21442e-07
2.23191e-07
2.19107e-07
2.14422e-07
2.08907e-07
1.50758e-07
1.48312e-07
1.46758e-07
1.46454e-07
1.47624e-07
1.50576e-07
1.54793e-07
1.59561e-07
1.64505e-07
1.69284e-07
1.73666e-07
1.76963e-07
1.77972e-07
1.75973e-07
1.72074e-07
1.69334e-07
1.658e-07
1.41197e-07
1.39295e-07
1.37482e-07
1.36109e-07
1.35319e-07
1.35256e-07
1.35491e-07
1.35771e-07
1.36057e-07
1.3624e-07
1.36148e-07
1.35471e-07
1.33963e-07
1.31707e-07
1.29476e-07
1.28328e-07
1.25539e-07
1.10467e-07
1.09393e-07
1.07866e-07
1.06181e-07
1.04475e-07
1.02929e-07
1.01708e-07
1.00734e-07
9.99309e-08
9.91347e-08
9.81518e-08
9.6886e-08
9.54938e-08
9.42461e-08
9.35015e-08
9.27701e-08
9.07244e-08
6.62465e-08
6.63361e-08
6.76938e-08
7.08588e-08
7.5193e-08
7.99218e-08
8.43766e-08
8.83412e-08
9.18329e-08
9.48333e-08
9.72198e-08
9.87742e-08
9.94291e-08
9.9218e-08
9.82646e-08
9.67128e-08
9.40527e-08
4.98549e-08
4.99556e-08
5.07657e-08
5.26078e-08
5.51788e-08
5.80651e-08
6.0859e-08
6.34231e-08
6.57791e-08
6.79282e-08
6.9789e-08
7.11881e-08
7.19968e-08
7.2176e-08
7.17866e-08
7.09056e-08
6.92597e-08
4.12816e-08
4.13713e-08
4.18437e-08
4.28773e-08
4.43302e-08
4.59943e-08
4.7644e-08
4.91972e-08
5.06634e-08
5.20419e-08
5.32813e-08
5.42663e-08
5.48984e-08
5.51315e-08
5.49887e-08
5.45122e-08
5.35573e-08
3.85967e-08
3.86022e-08
3.87531e-08
3.91466e-08
3.97622e-08
4.05244e-08
4.13241e-08
4.21107e-08
4.28798e-08
4.36242e-08
4.43099e-08
4.48656e-08
4.52262e-08
4.53559e-08
4.52604e-08
4.49645e-08
4.44585e-08
4.16616e-08
4.14894e-08
4.12374e-08
4.09557e-08
4.07541e-08
4.06749e-08
4.06978e-08
4.07876e-08
4.09214e-08
4.10819e-08
4.12454e-08
4.13729e-08
4.14265e-08
4.13814e-08
4.1234e-08
4.10029e-08
4.08546e-08
5.24339e-08
5.1918e-08
5.10388e-08
4.98151e-08
4.85405e-08
4.74041e-08
4.64795e-08
4.57364e-08
4.51236e-08
4.46079e-08
4.41703e-08
4.37994e-08
4.34803e-08
4.31985e-08
4.29445e-08
4.27443e-08
4.30733e-08
7.52384e-08
7.41774e-08
7.23569e-08
6.9744e-08
6.69051e-08
6.42482e-08
6.19817e-08
6.00772e-08
5.84397e-08
5.7011e-08
5.57774e-08
5.4764e-08
5.39877e-08
5.34533e-08
5.31544e-08
5.31633e-08
5.46037e-08
1.15624e-07
1.14249e-07
1.11604e-07
1.07494e-07
1.02825e-07
9.83307e-08
9.44452e-08
9.11641e-08
8.83357e-08
8.58727e-08
8.37844e-08
8.218e-08
8.11625e-08
8.0809e-08
8.11602e-08
8.24161e-08
8.71347e-08
1.80967e-07
1.80641e-07
1.78328e-07
1.73576e-07
1.67641e-07
1.61745e-07
1.56727e-07
1.5268e-07
1.49398e-07
1.46773e-07
1.44898e-07
1.44118e-07
1.44828e-07
1.47402e-07
1.52097e-07
1.59247e-07
1.74311e-07
2.78639e-07
2.7965e-07
2.7927e-07
2.76126e-07
2.71428e-07
2.66876e-07
2.63887e-07
2.62834e-07
2.63563e-07
2.6604e-07
2.70672e-07
2.78575e-07
2.91173e-07
3.09705e-07
3.34469e-07
3.64133e-07
4.05835e-07
3.7013e-07
3.65496e-07
3.67348e-07
3.70667e-07
3.75215e-07
3.81922e-07
3.92258e-07
4.07299e-07
4.27582e-07
4.53644e-07
4.8673e-07
5.29539e-07
5.8478e-07
6.52336e-07
7.26997e-07
7.99119e-07
8.69176e-07
3.10996e-07
2.93962e-07
2.89076e-07
2.9766e-07
3.14896e-07
3.38489e-07
3.68595e-07
4.08114e-07
4.60641e-07
5.29198e-07
6.16852e-07
7.27494e-07
8.61693e-07
1.01015e-06
1.15493e-06
1.27218e-06
1.36532e-06
1.37265e-07
1.26014e-07
1.20574e-07
1.23965e-07
1.32631e-07
1.44399e-07
1.59513e-07
1.81505e-07
2.16592e-07
2.74378e-07
3.70263e-07
5.20412e-07
7.21743e-07
9.45923e-07
1.1607e-06
1.33091e-06
1.45289e-06
4.66268e-08
4.26305e-08
4.04049e-08
4.09428e-08
4.30357e-08
4.57746e-08
4.9298e-08
5.4927e-08
6.49807e-08
8.32837e-08
1.17342e-07
1.80347e-07
2.87157e-07
4.43854e-07
6.34447e-07
8.10401e-07
9.34417e-07
9.04285e-09
8.19478e-09
7.72678e-09
7.80337e-09
8.16132e-09
8.59281e-09
9.13619e-09
1.00603e-08
1.17871e-08
1.50016e-08
2.11029e-08
3.27069e-08
5.3589e-08
8.7563e-08
1.3394e-07
1.86513e-07
2.29658e-07
9.21575e-08
9.04842e-08
8.8939e-08
8.75089e-08
8.61864e-08
8.49651e-08
8.38394e-08
8.28051e-08
8.18593e-08
8.10004e-08
8.02283e-08
7.95438e-08
7.89498e-08
7.84494e-08
7.80601e-08
7.78335e-08
6.80817e-08
6.69991e-08
6.59673e-08
6.49839e-08
6.4049e-08
6.31632e-08
6.23273e-08
6.15421e-08
6.08088e-08
6.01289e-08
5.9504e-08
5.89363e-08
5.84288e-08
5.79844e-08
5.76163e-08
5.73581e-08
5.28643e-08
5.22043e-08
5.15549e-08
5.09169e-08
5.02924e-08
4.96839e-08
4.9094e-08
4.85252e-08
4.79797e-08
4.74598e-08
4.69676e-08
4.65056e-08
4.60762e-08
4.56818e-08
4.53305e-08
4.50413e-08
4.4055e-08
4.36553e-08
4.32514e-08
4.28447e-08
4.24377e-08
4.20328e-08
4.16324e-08
4.12386e-08
4.08533e-08
4.04778e-08
4.01137e-08
3.9762e-08
3.94242e-08
3.91011e-08
3.87968e-08
3.85209e-08
4.06454e-08
4.04279e-08
4.02039e-08
3.99753e-08
3.97443e-08
3.95126e-08
3.92813e-08
3.90509e-08
3.88212e-08
3.85914e-08
3.83608e-08
3.81282e-08
3.78926e-08
3.76531e-08
3.74111e-08
3.71749e-08
4.30852e-08
4.30919e-08
4.31014e-08
4.31162e-08
4.31366e-08
4.31613e-08
4.31866e-08
4.32075e-08
4.32181e-08
4.32119e-08
4.31827e-08
4.31247e-08
4.30331e-08
4.29045e-08
4.274e-08
4.25618e-08
5.51604e-08
5.57404e-08
5.6354e-08
5.70005e-08
5.76699e-08
5.83449e-08
5.90037e-08
5.96227e-08
6.0179e-08
6.06518e-08
6.1024e-08
6.12837e-08
6.14228e-08
6.14397e-08
6.13616e-08
6.11954e-08
8.95786e-08
9.21289e-08
9.47734e-08
9.7464e-08
1.00115e-07
1.02631e-07
1.04917e-07
1.06899e-07
1.08518e-07
1.09742e-07
1.10556e-07
1.10971e-07
1.11001e-07
1.10721e-07
1.10118e-07
1.09167e-07
1.83731e-07
1.93163e-07
2.0226e-07
2.1054e-07
2.17541e-07
2.22952e-07
2.26632e-07
2.28591e-07
2.28955e-07
2.27917e-07
2.25697e-07
2.22579e-07
2.18709e-07
2.14135e-07
2.08924e-07
2.03267e-07
4.3432e-07
4.57902e-07
4.75039e-07
4.84658e-07
4.86867e-07
4.82685e-07
4.73511e-07
4.60768e-07
4.45711e-07
4.29349e-07
4.1244e-07
3.95373e-07
3.78538e-07
3.62217e-07
3.46529e-07
3.3164e-07
9.13233e-07
9.33274e-07
9.30655e-07
9.10477e-07
8.78486e-07
8.39615e-07
7.97622e-07
7.55101e-07
7.13693e-07
6.74326e-07
6.37448e-07
6.03279e-07
5.71826e-07
5.43003e-07
5.1655e-07
4.92661e-07
1.41855e-06
1.42337e-06
1.39429e-06
1.34301e-06
1.27899e-06
1.20945e-06
1.13939e-06
1.07189e-06
1.00852e-06
9.49897e-07
8.96046e-07
8.4678e-07
8.01811e-07
7.60896e-07
7.23479e-07
6.90511e-07
1.53307e-06
1.55721e-06
1.54221e-06
1.49949e-06
1.43876e-06
1.368e-06
1.29324e-06
1.21851e-06
1.1462e-06
1.07752e-06
1.0129e-06
9.5254e-07
8.96464e-07
8.4477e-07
7.9686e-07
7.54865e-07
1.02556e-06
1.07161e-06
1.08063e-06
1.06094e-06
1.02027e-06
9.65553e-07
9.02705e-07
8.36364e-07
7.69775e-07
7.0499e-07
6.43233e-07
5.85359e-07
5.3198e-07
4.83584e-07
4.39734e-07
4.01844e-07
2.63644e-07
2.81401e-07
2.84418e-07
2.76172e-07
2.60127e-07
2.3951e-07
2.16999e-07
1.94551e-07
1.73433e-07
1.54322e-07
1.37417e-07
1.22592e-07
1.09571e-07
9.81407e-08
8.79818e-08
7.93471e-08
7.86408e-08
7.81626e-08
7.73579e-08
7.63707e-08
7.52361e-08
7.4044e-08
7.28923e-08
7.18628e-08
7.095e-08
7.00784e-08
6.91322e-08
6.80674e-08
6.70176e-08
6.61842e-08
6.58118e-08
6.60654e-08
6.50007e-08
5.78505e-08
5.74594e-08
5.69131e-08
5.62734e-08
5.55528e-08
5.47895e-08
5.40337e-08
5.33289e-08
5.2676e-08
5.20401e-08
5.1371e-08
5.0662e-08
4.99957e-08
4.9479e-08
4.92332e-08
4.9401e-08
4.89046e-08
4.52294e-08
4.48704e-08
4.44501e-08
4.39989e-08
4.35268e-08
4.30564e-08
4.26152e-08
4.22267e-08
4.18943e-08
4.16061e-08
4.13446e-08
4.11077e-08
4.09167e-08
4.07862e-08
4.07322e-08
4.0857e-08
4.07073e-08
3.85024e-08
3.82179e-08
3.79444e-08
3.76971e-08
3.74872e-08
3.7327e-08
3.72248e-08
3.7184e-08
3.72059e-08
3.72948e-08
3.74579e-08
3.76928e-08
3.79577e-08
3.81742e-08
3.82545e-08
3.83095e-08
3.84059e-08
3.69927e-08
3.68346e-08
3.67666e-08
3.67922e-08
3.69231e-08
3.71564e-08
3.74757e-08
3.78579e-08
3.83018e-08
3.88308e-08
3.94829e-08
4.02532e-08
4.10195e-08
4.15879e-08
4.1742e-08
4.16425e-08
4.19624e-08
4.21675e-08
4.2204e-08
4.24393e-08
4.28609e-08
4.34763e-08
4.42552e-08
4.51422e-08
4.60763e-08
4.70575e-08
4.8141e-08
4.94084e-08
5.08492e-08
5.22273e-08
5.31935e-08
5.33577e-08
5.29471e-08
5.35087e-08
6.02558e-08
6.04503e-08
6.09941e-08
6.18437e-08
6.29928e-08
6.4365e-08
6.58482e-08
6.73328e-08
6.88269e-08
7.04312e-08
7.22849e-08
7.43735e-08
7.63305e-08
7.7635e-08
7.76925e-08
7.67259e-08
7.75115e-08
1.06149e-07
1.05476e-07
1.05338e-07
1.0565e-07
1.06389e-07
1.07438e-07
1.08635e-07
1.09832e-07
1.11047e-07
1.12428e-07
1.14182e-07
1.16321e-07
1.18398e-07
1.19752e-07
1.19576e-07
1.17939e-07
1.19092e-07
1.93776e-07
1.88636e-07
1.84539e-07
1.81358e-07
1.79061e-07
1.77507e-07
1.76497e-07
1.75838e-07
1.75533e-07
1.7575e-07
1.76754e-07
1.78607e-07
1.80823e-07
1.82626e-07
1.82964e-07
1.81629e-07
1.84074e-07
3.12412e-07
2.9969e-07
2.89251e-07
2.8089e-07
2.74494e-07
2.69822e-07
2.66562e-07
2.64392e-07
2.63204e-07
2.63083e-07
2.64249e-07
2.66734e-07
2.70023e-07
2.73301e-07
2.75464e-07
2.75835e-07
2.78677e-07
4.64055e-07
4.43398e-07
4.26747e-07
4.13727e-07
4.03908e-07
3.96781e-07
3.91785e-07
3.88325e-07
3.85934e-07
3.84296e-07
3.83206e-07
3.82464e-07
3.81726e-07
3.80596e-07
3.7903e-07
3.75203e-07
3.692e-07
6.52096e-07
6.20965e-07
5.9543e-07
5.74548e-07
5.56968e-07
5.4165e-07
5.27632e-07
5.13945e-07
4.99531e-07
4.8343e-07
4.64827e-07
4.43476e-07
4.20065e-07
3.95815e-07
3.73344e-07
3.51073e-07
3.24429e-07
7.1146e-07
6.6546e-07
6.25112e-07
5.88595e-07
5.53518e-07
5.18454e-07
4.825e-07
4.45204e-07
4.06259e-07
3.65809e-07
3.24543e-07
2.84117e-07
2.46999e-07
2.15075e-07
1.89753e-07
1.69264e-07
1.49382e-07
3.70309e-07
3.27855e-07
2.93133e-07
2.63508e-07
2.37063e-07
2.12826e-07
1.90348e-07
1.6942e-07
1.49816e-07
1.31422e-07
1.14263e-07
9.86135e-08
8.4941e-08
7.35629e-08
6.4685e-08
5.76047e-08
5.10026e-08
7.25608e-08
6.26462e-08
5.53691e-08
4.93951e-08
4.42395e-08
3.96548e-08
3.55024e-08
3.16947e-08
2.81605e-08
2.48658e-08
2.1809e-08
1.90232e-08
1.65538e-08
1.44281e-08
1.26866e-08
1.12474e-08
9.94573e-09
8.0455e-08
5.0419e-08
3.01356e-08
4.3927e-08
4.82854e-08
3.91185e-08
3.28159e-08
2.96909e-08
2.87259e-08
2.92346e-08
3.11761e-08
3.85766e-08
4.95403e-08
5.50244e-08
4.98688e-08
5.79474e-08
6.8691e-08
4.31583e-07
2.61774e-07
1.43657e-07
1.91748e-07
1.82418e-07
1.39004e-07
1.1506e-07
1.02038e-07
9.43611e-08
8.96039e-08
8.89332e-08
9.6606e-08
1.01425e-07
8.59638e-08
6.40475e-08
7.00486e-08
9.57008e-08
1.13606e-06
7.12947e-07
3.90599e-07
4.25712e-07
2.91888e-07
1.98377e-07
1.58248e-07
1.3386e-07
1.15516e-07
1.02657e-07
9.56871e-08
9.72842e-08
1.01813e-07
9.09999e-08
7.34902e-08
7.5078e-08
9.3759e-08
1.246e-06
9.59497e-07
6.7857e-07
6.04182e-07
3.39471e-07
2.10625e-07
1.59307e-07
1.30349e-07
1.1081e-07
9.86628e-08
9.21501e-08
9.48132e-08
1.02788e-07
9.54342e-08
8.00587e-08
8.05546e-08
9.40368e-08
8.90466e-07
8.16254e-07
7.25641e-07
6.70217e-07
3.94714e-07
2.30111e-07
1.64666e-07
1.30725e-07
1.10254e-07
9.8378e-08
9.16087e-08
9.39953e-08
1.01763e-07
9.80819e-08
8.69025e-08
8.69991e-08
9.69313e-08
6.37753e-07
6.32209e-07
6.39296e-07
6.40492e-07
4.39318e-07
2.59861e-07
1.77454e-07
1.36724e-07
1.13549e-07
1.00522e-07
9.31245e-08
9.56221e-08
1.03513e-07
1.03105e-07
9.57687e-08
9.54874e-08
1.02868e-07
5.03904e-07
5.13988e-07
5.52745e-07
5.86489e-07
4.75452e-07
3.04918e-07
2.0122e-07
1.49126e-07
1.21655e-07
1.06903e-07
9.91802e-08
1.02428e-07
1.1087e-07
1.12873e-07
1.08441e-07
1.07671e-07
1.12962e-07
4.16115e-07
4.31657e-07
4.82091e-07
5.30805e-07
4.95423e-07
3.69313e-07
2.49573e-07
1.77254e-07
1.40409e-07
1.21977e-07
1.13168e-07
1.17257e-07
1.26033e-07
1.29553e-07
1.26993e-07
1.25537e-07
1.28907e-07
3.50347e-07
3.6645e-07
4.17938e-07
4.72314e-07
4.85045e-07
4.26511e-07
3.27505e-07
2.37767e-07
1.82318e-07
1.53818e-07
1.40881e-07
1.45325e-07
1.53501e-07
1.56747e-07
1.54343e-07
1.51626e-07
1.52708e-07
2.9669e-07
3.1032e-07
3.55559e-07
4.07904e-07
4.4229e-07
4.37651e-07
3.93126e-07
3.26485e-07
2.66823e-07
2.18666e-07
1.96003e-07
1.9678e-07
1.98207e-07
1.97461e-07
1.92948e-07
1.87743e-07
1.85472e-07
2.49897e-07
2.59811e-07
2.94766e-07
3.38931e-07
3.76998e-07
3.97625e-07
3.96105e-07
3.74754e-07
3.44617e-07
3.18887e-07
2.86519e-07
2.66842e-07
2.57528e-07
2.4937e-07
2.40381e-07
2.31167e-07
2.24255e-07
2.06685e-07
2.13283e-07
2.37331e-07
2.7007e-07
3.02212e-07
3.27667e-07
3.43542e-07
3.49102e-07
3.46669e-07
3.40719e-07
3.33253e-07
3.17396e-07
3.0325e-07
2.9121e-07
2.79347e-07
2.67226e-07
2.55992e-07
1.65571e-07
1.69852e-07
1.84817e-07
2.06233e-07
2.29001e-07
2.49814e-07
2.66997e-07
2.79619e-07
2.87492e-07
2.91381e-07
2.92107e-07
2.90378e-07
2.87021e-07
2.8188e-07
2.74932e-07
2.66109e-07
2.54798e-07
1.2672e-07
1.29466e-07
1.37943e-07
1.50381e-07
1.64304e-07
1.78017e-07
1.9048e-07
2.00946e-07
2.08771e-07
2.13691e-07
2.15758e-07
2.1533e-07
2.1472e-07
2.14468e-07
2.13802e-07
2.11081e-07
2.04185e-07
9.21923e-08
9.34616e-08
9.73809e-08
1.03585e-07
1.10976e-07
1.18661e-07
1.25924e-07
1.32312e-07
1.37474e-07
1.41155e-07
1.43231e-07
1.43678e-07
1.43514e-07
1.42854e-07
1.41797e-07
1.40734e-07
1.37087e-07
7.38146e-08
7.66257e-08
7.79902e-08
7.82992e-08
7.77903e-08
7.66591e-08
7.50574e-08
7.31e-08
7.08798e-08
6.84678e-08
6.59279e-08
6.33047e-08
6.06391e-08
5.79786e-08
5.53071e-08
5.27344e-08
1.21914e-07
1.43633e-07
1.60213e-07
1.72668e-07
1.81811e-07
1.88328e-07
1.92737e-07
1.9539e-07
1.96546e-07
1.96428e-07
1.95161e-07
1.92957e-07
1.898e-07
1.86015e-07
1.81232e-07
1.762e-07
1.14291e-07
1.3253e-07
1.47592e-07
1.6006e-07
1.70431e-07
1.79112e-07
1.86389e-07
1.92429e-07
1.97331e-07
2.01181e-07
2.03995e-07
2.05877e-07
2.06735e-07
2.06775e-07
2.05629e-07
2.0374e-07
1.09269e-07
1.22385e-07
1.32685e-07
1.40688e-07
1.46944e-07
1.51913e-07
1.55922e-07
1.59173e-07
1.61787e-07
1.63844e-07
1.6537e-07
1.66416e-07
1.66934e-07
1.67006e-07
1.66462e-07
1.65434e-07
1.08356e-07
1.18191e-07
1.25778e-07
1.31415e-07
1.35513e-07
1.38429e-07
1.4044e-07
1.41736e-07
1.42448e-07
1.42673e-07
1.42473e-07
1.41909e-07
1.40998e-07
1.39798e-07
1.38262e-07
1.36467e-07
1.11358e-07
1.18632e-07
1.24131e-07
1.28016e-07
1.30599e-07
1.32162e-07
1.32937e-07
1.33089e-07
1.32742e-07
1.31987e-07
1.30891e-07
1.29506e-07
1.27873e-07
1.26028e-07
1.23969e-07
1.21756e-07
1.18954e-07
1.24015e-07
1.277e-07
1.30062e-07
1.31333e-07
1.3174e-07
1.31476e-07
1.30689e-07
1.29494e-07
1.27974e-07
1.26198e-07
1.2421e-07
1.22058e-07
1.19769e-07
1.17359e-07
1.14888e-07
1.32474e-07
1.35296e-07
1.37094e-07
1.37852e-07
1.37735e-07
1.36923e-07
1.35575e-07
1.33819e-07
1.31759e-07
1.29468e-07
1.27011e-07
1.24427e-07
1.21765e-07
1.19044e-07
1.16292e-07
1.13579e-07
1.53535e-07
1.53745e-07
1.53278e-07
1.52084e-07
1.50273e-07
1.47975e-07
1.45313e-07
1.42392e-07
1.39297e-07
1.3609e-07
1.32826e-07
1.29538e-07
1.26271e-07
1.23043e-07
1.19886e-07
1.16884e-07
1.82891e-07
1.79896e-07
1.76611e-07
1.72984e-07
1.6906e-07
1.64921e-07
1.60644e-07
1.56299e-07
1.51947e-07
1.47631e-07
1.43394e-07
1.39257e-07
1.3526e-07
1.31421e-07
1.27778e-07
1.24424e-07
2.17685e-07
2.11135e-07
2.04712e-07
1.98385e-07
1.92131e-07
1.85976e-07
1.79943e-07
1.74064e-07
1.68368e-07
1.62875e-07
1.5761e-07
1.52586e-07
1.47835e-07
1.43376e-07
1.39254e-07
1.35563e-07
2.46372e-07
2.37285e-07
2.28593e-07
2.20301e-07
2.12361e-07
2.04754e-07
1.97473e-07
1.90517e-07
1.83891e-07
1.77601e-07
1.71658e-07
1.6607e-07
1.60866e-07
1.5607e-07
1.51736e-07
1.47949e-07
2.46015e-07
2.37764e-07
2.29753e-07
2.22036e-07
2.14616e-07
2.07496e-07
2.00677e-07
1.94168e-07
1.87977e-07
1.82115e-07
1.76598e-07
1.71442e-07
1.66682e-07
1.62352e-07
1.58515e-07
1.5523e-07
1.99598e-07
1.95296e-07
1.90979e-07
1.86678e-07
1.82422e-07
1.78236e-07
1.7414e-07
1.70158e-07
1.66316e-07
1.62638e-07
1.59152e-07
1.55887e-07
1.5288e-07
1.50172e-07
1.4782e-07
1.45846e-07
1.34812e-07
1.32846e-07
1.30962e-07
1.29147e-07
1.27398e-07
1.25715e-07
1.24096e-07
1.22543e-07
1.21064e-07
1.19665e-07
1.18358e-07
1.17157e-07
1.1608e-07
1.15143e-07
1.14379e-07
1.13802e-07
4.97422e-08
4.77774e-08
4.6346e-08
4.54422e-08
4.53431e-08
4.70162e-08
5.34633e-08
6.46128e-08
8.35634e-08
1.10304e-07
1.37416e-07
1.62164e-07
1.9762e-07
2.41206e-07
2.40452e-07
1.36581e-07
6.92395e-08
1.69052e-07
1.6371e-07
1.58976e-07
1.54193e-07
1.49043e-07
1.40074e-07
1.43016e-07
1.72116e-07
2.32506e-07
3.33416e-07
4.59594e-07
5.9364e-07
7.72468e-07
1.01737e-06
1.11255e-06
7.03267e-07
3.51186e-07
2.00026e-07
1.96192e-07
1.90871e-07
1.83695e-07
1.73961e-07
1.58351e-07
1.51981e-07
1.75026e-07
2.33961e-07
3.41744e-07
4.96383e-07
6.96047e-07
9.85895e-07
1.40893e-06
1.73517e-06
1.41977e-06
8.71506e-07
1.63693e-07
1.61198e-07
1.5735e-07
1.52063e-07
1.45282e-07
1.36116e-07
1.32285e-07
1.48923e-07
1.92188e-07
2.69201e-07
3.79812e-07
5.30504e-07
7.51155e-07
1.03753e-06
1.25228e-06
1.23864e-06
1.10696e-06
1.34373e-07
1.31887e-07
1.28829e-07
1.25278e-07
1.21534e-07
1.17816e-07
1.17971e-07
1.32549e-07
1.67287e-07
2.25294e-07
3.0411e-07
4.07725e-07
5.52043e-07
7.15053e-07
8.11587e-07
8.34485e-07
9.1368e-07
1.19332e-07
1.16773e-07
1.14044e-07
1.11339e-07
1.09069e-07
1.07992e-07
1.10538e-07
1.24442e-07
1.54606e-07
2.01963e-07
2.63688e-07
3.42707e-07
4.46756e-07
5.51775e-07
6.03604e-07
6.11641e-07
6.84217e-07
1.12239e-07
1.09648e-07
1.07167e-07
1.05061e-07
1.03794e-07
1.04421e-07
1.08834e-07
1.22766e-07
1.5009e-07
1.90341e-07
2.40941e-07
3.04203e-07
3.82815e-07
4.54167e-07
4.82375e-07
4.82767e-07
5.33514e-07
1.10706e-07
1.08079e-07
1.0582e-07
1.04246e-07
1.0386e-07
1.05872e-07
1.1211e-07
1.26564e-07
1.51845e-07
1.86609e-07
2.28809e-07
2.80039e-07
3.39542e-07
3.87958e-07
4.02496e-07
3.98043e-07
4.32695e-07
1.13751e-07
1.11065e-07
1.09017e-07
1.07955e-07
1.08417e-07
1.11633e-07
1.19657e-07
1.34723e-07
1.58106e-07
1.88021e-07
2.23012e-07
2.63766e-07
3.07309e-07
3.3845e-07
3.44052e-07
3.37194e-07
3.58763e-07
1.20988e-07
1.18207e-07
1.16346e-07
1.15761e-07
1.16975e-07
1.21152e-07
1.3053e-07
1.45661e-07
1.6664e-07
1.91601e-07
2.19554e-07
2.50264e-07
2.79767e-07
2.97407e-07
2.97006e-07
2.89627e-07
3.0114e-07
1.31879e-07
1.2901e-07
1.27308e-07
1.27131e-07
1.28881e-07
1.3362e-07
1.43269e-07
1.57105e-07
1.74412e-07
1.93595e-07
2.13962e-07
2.34649e-07
2.51941e-07
2.59532e-07
2.55769e-07
2.49401e-07
2.54392e-07
1.44312e-07
1.41478e-07
1.39906e-07
1.39939e-07
1.41875e-07
1.46468e-07
1.54525e-07
1.64898e-07
1.76733e-07
1.89022e-07
2.01308e-07
2.12605e-07
2.2035e-07
2.21675e-07
2.17201e-07
2.12975e-07
2.14766e-07
1.52296e-07
1.49776e-07
1.48203e-07
1.47923e-07
1.49155e-07
1.52212e-07
1.56666e-07
1.61839e-07
1.67332e-07
1.7277e-07
1.77893e-07
1.82009e-07
1.83899e-07
1.82754e-07
1.79722e-07
1.78146e-07
1.79032e-07
1.44454e-07
1.42567e-07
1.40825e-07
1.39593e-07
1.3902e-07
1.39264e-07
1.39924e-07
1.40755e-07
1.41727e-07
1.42744e-07
1.43651e-07
1.44154e-07
1.43996e-07
1.43237e-07
1.42683e-07
1.43517e-07
1.44547e-07
1.14122e-07
1.13149e-07
1.11735e-07
1.10201e-07
1.08694e-07
1.07418e-07
1.0656e-07
1.06057e-07
1.05853e-07
1.05807e-07
1.05752e-07
1.05624e-07
1.05618e-07
1.06042e-07
1.07043e-07
1.09328e-07
1.1041e-07
6.6421e-08
6.64661e-08
6.77941e-08
7.09358e-08
7.52705e-08
8.00332e-08
8.45527e-08
8.86054e-08
9.22023e-08
9.53185e-08
9.78241e-08
9.94914e-08
1.00248e-07
1.00125e-07
9.92474e-08
9.77578e-08
9.51356e-08
4.99848e-08
5.0065e-08
5.08659e-08
5.2701e-08
5.52695e-08
5.8162e-08
6.09721e-08
6.35615e-08
6.59517e-08
6.81425e-08
7.00507e-08
7.14985e-08
7.23533e-08
7.25729e-08
7.2217e-08
7.1363e-08
6.9735e-08
4.13523e-08
4.14345e-08
4.19073e-08
4.29434e-08
4.43997e-08
4.60684e-08
4.77247e-08
4.92866e-08
5.07646e-08
5.2158e-08
5.34153e-08
5.44199e-08
5.50716e-08
5.53226e-08
5.51955e-08
5.47323e-08
5.37876e-08
3.86221e-08
3.86281e-08
3.87845e-08
3.91852e-08
3.98077e-08
4.05764e-08
4.1382e-08
4.21742e-08
4.29494e-08
4.37006e-08
4.43942e-08
4.49585e-08
4.5328e-08
4.54663e-08
4.53788e-08
4.50904e-08
4.45918e-08
4.16535e-08
4.14926e-08
4.12531e-08
4.09829e-08
4.07912e-08
4.07203e-08
4.07502e-08
4.08459e-08
4.0985e-08
4.11507e-08
4.13193e-08
4.14521e-08
4.15112e-08
4.14717e-08
4.133e-08
4.11047e-08
4.09649e-08
5.23971e-08
5.19173e-08
5.10661e-08
4.98623e-08
4.86022e-08
4.74764e-08
4.65601e-08
4.58239e-08
4.52171e-08
4.47066e-08
4.4274e-08
4.39081e-08
4.35941e-08
4.3318e-08
4.30701e-08
4.2878e-08
4.32211e-08
7.51559e-08
7.41867e-08
7.2427e-08
6.98516e-08
6.70379e-08
6.43979e-08
6.21437e-08
6.02492e-08
5.86203e-08
5.71991e-08
5.59727e-08
5.49666e-08
5.41984e-08
5.36736e-08
5.3386e-08
5.34118e-08
5.48858e-08
1.15384e-07
1.14198e-07
1.11671e-07
1.07638e-07
1.03029e-07
9.85796e-08
9.47286e-08
9.14761e-08
8.86726e-08
8.62323e-08
8.41656e-08
8.25837e-08
8.15916e-08
8.12687e-08
8.1658e-08
8.29705e-08
8.77957e-08
1.80146e-07
1.80192e-07
1.78086e-07
1.73519e-07
1.67756e-07
1.62002e-07
1.57098e-07
1.53147e-07
1.4995e-07
1.47406e-07
1.45611e-07
1.44919e-07
1.45734e-07
1.48441e-07
1.53315e-07
1.60713e-07
1.7618e-07
2.76423e-07
2.78095e-07
2.78291e-07
2.75576e-07
2.71242e-07
2.66989e-07
2.64247e-07
2.63417e-07
2.64364e-07
2.67074e-07
2.71973e-07
2.80211e-07
2.93263e-07
3.12432e-07
3.38059e-07
3.68776e-07
4.11798e-07
3.67782e-07
3.64319e-07
3.66799e-07
3.70338e-07
3.75069e-07
3.8199e-07
3.92586e-07
4.07953e-07
4.28658e-07
4.55278e-07
4.89123e-07
5.33018e-07
5.89848e-07
6.596e-07
7.36916e-07
8.11664e-07
8.84098e-07
3.14821e-07
2.97591e-07
2.91135e-07
2.98612e-07
3.15109e-07
3.3835e-07
3.68426e-07
4.08197e-07
4.61282e-07
5.30777e-07
6.19905e-07
7.3286e-07
8.70517e-07
1.02345e-06
1.17301e-06