/*--------------------------------*- C++ -*----------------------------------*\
| =========                 |                                                 |
| \\      /  F ield         | OpenFOAM: The Open Source CFD Toolbox           |
|  \\    /   O peration     | Version:  2.3.x                                 |
|   \\  /    A nd           | Web:      www.OpenFOAM.org                      |
|    \\/     M anipulation  |                                                 |
\*---------------------------------------------------------------------------*/
FoamFile
{
    version     2.0;
    format      ascii;
    class       volScalarField;
    location    "0";
    object      Eta;
}
// * * * * * * * * * * * * * * * * * * * * * * * * * * * * * * * * * * * * * //

dimensions      [0 2 -2 0 0 0 0];

internalField   nonuniform List<scalar> 
3000
(
2.48432e-07
1.58871e-07
1.0166e-07
1.95253e-07
4.2954e-07
5.30541e-07
5.30951e-07
5.81227e-07
7.30003e-07
9.55118e-07
1.18492e-06
1.65252e-06
2.64613e-06
4.07315e-06
5.79989e-06
4.95693e-06
4.19217e-06
4.4736e-06
2.84659e-06
1.74161e-06
3.11969e-06
5.50365e-06
5.73226e-06
5.42166e-06
5.41593e-06
5.74626e-06
6.18954e-06
6.59193e-06
7.43802e-06
8.59052e-06
9.18325e-06
9.44198e-06
9.8803e-06
1.02856e-05
1.57788e-05
1.10094e-05
7.22789e-06
1.05139e-05
1.22264e-05
1.11158e-05
1.01302e-05
9.6581e-06
9.60754e-06
9.78931e-06
1.00421e-05
1.08291e-05
1.1875e-05
1.21183e-05
1.20775e-05
1.27702e-05
1.35442e-05
2.47779e-05
1.95801e-05
1.53012e-05
1.87743e-05
1.76502e-05
1.51676e-05
1.35856e-05
1.27143e-05
1.23753e-05
1.23709e-05
1.24636e-05
1.31682e-05
1.42349e-05
1.45679e-05
1.45403e-05
1.52604e-05
1.61515e-05
3.09709e-05
2.57306e-05
2.13338e-05
2.34094e-05
2.20082e-05
1.85745e-05
1.64829e-05
1.52569e-05
1.46664e-05
1.45084e-05
1.44881e-05
1.52547e-05
1.65215e-05
1.70447e-05
1.70931e-05
1.77679e-05
1.86951e-05
3.60335e-05
3.10962e-05
2.64366e-05
2.69346e-05
2.59791e-05
2.20904e-05
1.93364e-05
1.77179e-05
1.68998e-05
1.66157e-05
1.65764e-05
1.75309e-05
1.90445e-05
1.97686e-05
1.99229e-05
2.05245e-05
2.14431e-05
4.00765e-05
3.57265e-05
3.13503e-05
3.05763e-05
3.01586e-05
2.64326e-05
2.28187e-05
2.05666e-05
1.94709e-05
1.9083e-05
1.91069e-05
2.02981e-05
2.19942e-05
2.2897e-05
2.32048e-05
2.37337e-05
2.46218e-05
4.34822e-05
3.96974e-05
3.59469e-05
3.44794e-05
3.44211e-05
3.1898e-05
2.78255e-05
2.46604e-05
2.30525e-05
2.2422e-05
2.24867e-05
2.38259e-05
2.56345e-05
2.67394e-05
2.71988e-05
2.76481e-05
2.84851e-05
4.61965e-05
4.29541e-05
3.99566e-05
3.83282e-05
3.83023e-05
3.74662e-05
3.46032e-05
3.0955e-05
2.83785e-05
2.72168e-05
2.71123e-05
2.86618e-05
3.06119e-05
3.17758e-05
3.2251e-05
3.25764e-05
3.32841e-05
4.80229e-05
4.52846e-05
4.30344e-05
4.16176e-05
4.14465e-05
4.1593e-05
4.08589e-05
3.89359e-05
3.69604e-05
3.48038e-05
3.43375e-05
3.59403e-05
3.72852e-05
3.81708e-05
3.84759e-05
3.86011e-05
3.90335e-05
4.86247e-05
4.64034e-05
4.4825e-05
4.38152e-05
4.35666e-05
4.38754e-05
4.42567e-05
4.43366e-05
4.43385e-05
4.45802e-05
4.42223e-05
4.4187e-05
4.48176e-05
4.52046e-05
4.52371e-05
4.50847e-05
4.51061e-05
4.76192e-05
4.5989e-05
4.50115e-05
4.44592e-05
4.4297e-05
4.4498e-05
4.49862e-05
4.5677e-05
4.6595e-05
4.77685e-05
4.90606e-05
4.95506e-05
4.99711e-05
5.0256e-05
5.02533e-05
4.99964e-05
4.96678e-05
4.4717e-05
4.37371e-05
4.33121e-05
4.31932e-05
4.32387e-05
4.3418e-05
4.37492e-05
4.42658e-05
4.5001e-05
4.59475e-05
4.70192e-05
4.80293e-05
4.89478e-05
4.96484e-05
5.00576e-05
5.0134e-05
4.97871e-05
3.98551e-05
3.94789e-05
3.95146e-05
3.976e-05
4.00527e-05
4.03426e-05
4.06336e-05
4.095e-05
4.13095e-05
4.17114e-05
4.21268e-05
4.24948e-05
4.2948e-05
4.34863e-05
4.40096e-05
4.43055e-05
4.4082e-05
3.34172e-05
3.3393e-05
3.36425e-05
3.40866e-05
3.45765e-05
3.50332e-05
3.54203e-05
3.57348e-05
3.5983e-05
3.61679e-05
3.62861e-05
3.63212e-05
3.63511e-05
3.63789e-05
3.64011e-05
3.64348e-05
3.61242e-05
3.61112e-06
3.20672e-06
2.90915e-06
2.67193e-06
2.46796e-06
2.2866e-06
2.12074e-06
1.96787e-06
1.82652e-06
1.69556e-06
1.57528e-06
1.46381e-06
1.36282e-06
1.26947e-06
1.1868e-06
1.11097e-06
1.05296e-05
1.0654e-05
1.06967e-05
1.06749e-05
1.06014e-05
1.04859e-05
1.0336e-05
1.01581e-05
9.95796e-06
9.7398e-06
9.50857e-06
9.26629e-06
9.01807e-06
8.76474e-06
8.50882e-06
8.25636e-06
1.41164e-05
1.44976e-05
1.47348e-05
1.48588e-05
1.48958e-05
1.48641e-05
1.47791e-05
1.46519e-05
1.44919e-05
1.43058e-05
1.40998e-05
1.38779e-05
1.36441e-05
1.34014e-05
1.31486e-05
1.28933e-05
1.68493e-05
1.73421e-05
1.76727e-05
1.78698e-05
1.79607e-05
1.79651e-05
1.79008e-05
1.77811e-05
1.76175e-05
1.74189e-05
1.71932e-05
1.69459e-05
1.66825e-05
1.64067e-05
1.61185e-05
1.58257e-05
1.94475e-05
1.99877e-05
2.03557e-05
2.05776e-05
2.06823e-05
2.06912e-05
2.06238e-05
2.04948e-05
2.03171e-05
2.01001e-05
1.98528e-05
1.95809e-05
1.92905e-05
1.89853e-05
1.86664e-05
1.83408e-05
2.22132e-05
2.27737e-05
2.31583e-05
2.33874e-05
2.34895e-05
2.34872e-05
2.34013e-05
2.32481e-05
2.30417e-05
2.27928e-05
2.25112e-05
2.22031e-05
2.18758e-05
2.15328e-05
2.11764e-05
2.0814e-05
2.53736e-05
2.59203e-05
2.62925e-05
2.6505e-05
2.65846e-05
2.65545e-05
2.6436e-05
2.62466e-05
2.60014e-05
2.57118e-05
2.53883e-05
2.50376e-05
2.46679e-05
2.42826e-05
2.38854e-05
2.34849e-05
2.91666e-05
2.96438e-05
2.99526e-05
3.01046e-05
3.01242e-05
3.00346e-05
2.9857e-05
2.96093e-05
2.93068e-05
2.89613e-05
2.8584e-05
2.81815e-05
2.77629e-05
2.73318e-05
2.68934e-05
2.64586e-05
3.38053e-05
3.41275e-05
3.42966e-05
3.43238e-05
3.42291e-05
3.40347e-05
3.37598e-05
3.34216e-05
3.3035e-05
3.26114e-05
3.21619e-05
3.16932e-05
3.12151e-05
3.07318e-05
3.02503e-05
2.97847e-05
3.92842e-05
3.93577e-05
3.9306e-05
3.91413e-05
3.88773e-05
3.85331e-05
3.81242e-05
3.76658e-05
3.71707e-05
3.66495e-05
3.61125e-05
3.55665e-05
3.50217e-05
3.44834e-05
3.3961e-05
3.34715e-05
4.50197e-05
4.48041e-05
4.44982e-05
4.41165e-05
4.36664e-05
4.31615e-05
4.26132e-05
4.20331e-05
4.14318e-05
4.08183e-05
4.02018e-05
3.95894e-05
3.89913e-05
3.8415e-05
3.78724e-05
3.73825e-05
4.93534e-05
4.89659e-05
4.85095e-05
4.80025e-05
4.74511e-05
4.68645e-05
4.62515e-05
4.5621e-05
4.49816e-05
4.43413e-05
4.37087e-05
4.30914e-05
4.25003e-05
4.19453e-05
4.14412e-05
4.10061e-05
4.95648e-05
4.92967e-05
4.89578e-05
4.85665e-05
4.81333e-05
4.76671e-05
4.71764e-05
4.66696e-05
4.6155e-05
4.56407e-05
4.51353e-05
4.46478e-05
4.41894e-05
4.37718e-05
4.34111e-05
4.31209e-05
4.40541e-05
4.40257e-05
4.39536e-05
4.38431e-05
4.36998e-05
4.35285e-05
4.33346e-05
4.31239e-05
4.29026e-05
4.26773e-05
4.24552e-05
4.22445e-05
4.20545e-05
4.18955e-05
4.17804e-05
4.17143e-05
3.59907e-05
3.59066e-05
3.5834e-05
3.57703e-05
3.57143e-05
3.56649e-05
3.56216e-05
3.55845e-05
3.55545e-05
3.5533e-05
3.55223e-05
3.55251e-05
3.55454e-05
3.55872e-05
3.56571e-05
3.57565e-05
1.02807e-06
9.87929e-07
9.74786e-07
9.94191e-07
1.06932e-06
1.33884e-06
1.76531e-06
1.94186e-06
2.01958e-06
1.98694e-06
1.83555e-06
1.66364e-06
1.51171e-06
1.29981e-06
1.01408e-06
5.29762e-07
3.39948e-07
7.93854e-06
7.75804e-06
7.65454e-06
7.63248e-06
7.73148e-06
8.12731e-06
8.88881e-06
9.75236e-06
1.09617e-05
1.23942e-05
1.35836e-05
1.44429e-05
1.52797e-05
1.55361e-05
1.399e-05
9.0129e-06
6.04857e-06
1.25649e-05
1.2356e-05
1.21931e-05
1.20767e-05
1.20283e-05
1.21614e-05
1.27909e-05
1.3972e-05
1.58882e-05
1.84023e-05
2.09375e-05
2.33592e-05
2.62157e-05
2.90277e-05
2.94317e-05
2.42419e-05
1.92953e-05
1.5457e-05
1.52099e-05
1.50079e-05
1.48534e-05
1.47607e-05
1.48345e-05
1.54944e-05
1.6913e-05
1.92611e-05
2.23432e-05
2.54959e-05
2.85683e-05
3.22165e-05
3.61455e-05
3.79818e-05
3.41493e-05
2.88198e-05
1.79348e-05
1.7653e-05
1.74247e-05
1.72534e-05
1.71499e-05
1.72208e-05
1.79462e-05
1.96027e-05
2.23231e-05
2.58326e-05
2.94251e-05
3.29793e-05
3.71294e-05
4.15534e-05
4.38385e-05
4.08766e-05
3.53211e-05
2.03675e-05
2.00514e-05
1.98064e-05
1.96383e-05
1.95613e-05
1.96934e-05
2.05412e-05
2.24571e-05
2.55306e-05
2.93894e-05
3.33168e-05
3.72461e-05
4.1711e-05
4.62103e-05
4.82623e-05
4.52826e-05
4.02078e-05
2.29964e-05
2.26468e-05
2.23935e-05
2.22477e-05
2.22301e-05
2.2482e-05
2.3524e-05
2.57331e-05
2.91288e-05
3.32376e-05
3.73821e-05
4.15551e-05
4.61215e-05
5.03789e-05
5.19783e-05
4.88577e-05
4.40842e-05
2.59359e-05
2.55633e-05
2.53204e-05
2.5226e-05
2.53119e-05
2.57433e-05
2.7062e-05
2.95859e-05
3.32287e-05
3.7444e-05
4.16522e-05
4.58795e-05
5.02737e-05
5.39828e-05
5.49954e-05
5.18257e-05
4.72355e-05
2.92364e-05
2.88554e-05
2.86458e-05
2.86342e-05
2.88703e-05
2.95318e-05
3.11919e-05
3.39945e-05
3.77446e-05
4.18787e-05
4.59548e-05
4.9985e-05
5.38809e-05
5.67361e-05
5.70376e-05
5.39558e-05
4.9606e-05
3.29112e-05
3.25378e-05
3.23817e-05
3.24778e-05
3.2887e-05
3.37919e-05
3.576e-05
3.87014e-05
4.2335e-05
4.6145e-05
4.98282e-05
5.33374e-05
5.6385e-05
5.8145e-05
5.76938e-05
5.48544e-05
5.09715e-05
3.68428e-05
3.65012e-05
3.64152e-05
3.66317e-05
3.71985e-05
3.82998e-05
4.03824e-05
4.31705e-05
4.63469e-05
4.95093e-05
5.24646e-05
5.50947e-05
5.70198e-05
5.76331e-05
5.65704e-05
5.41461e-05
5.09802e-05
4.05543e-05
4.02817e-05
4.02676e-05
4.05664e-05
4.12286e-05
4.23773e-05
4.41944e-05
4.63833e-05
4.86847e-05
5.08516e-05
5.27664e-05
5.42756e-05
5.50473e-05
5.47571e-05
5.34328e-05
5.15888e-05
4.92838e-05
4.28602e-05
4.26945e-05
4.27095e-05
4.29687e-05
4.35151e-05
4.43948e-05
4.55336e-05
4.67557e-05
4.79357e-05
4.89686e-05
4.97851e-05
5.02559e-05
5.01891e-05
4.94902e-05
4.83418e-05
4.71731e-05
4.56799e-05
4.17346e-05
4.1676e-05
4.16336e-05
4.16782e-05
4.18409e-05
4.21425e-05
4.25007e-05
4.284e-05
4.31334e-05
4.33433e-05
4.34226e-05
4.33006e-05
4.29285e-05
4.23323e-05
4.16731e-05
4.11347e-05
4.01847e-05
3.60176e-05
3.60387e-05
3.59495e-05
3.58152e-05
3.56651e-05
3.55354e-05
3.54639e-05
3.54253e-05
3.53991e-05
3.53427e-05
3.52051e-05
3.49604e-05
3.465e-05
3.43489e-05
3.41505e-05
3.39263e-05
3.33345e-05
2.68332e-05
2.68323e-05
2.705e-05
2.7566e-05
2.82166e-05
2.88578e-05
2.94005e-05
2.9838e-05
3.01963e-05
3.0492e-05
3.07236e-05
3.08708e-05
3.09244e-05
3.08854e-05
3.07635e-05
3.0568e-05
3.01678e-05
2.14232e-05
2.15017e-05
2.17688e-05
2.22877e-05
2.2933e-05
2.3585e-05
2.41591e-05
2.46436e-05
2.5059e-05
2.54183e-05
2.57173e-05
2.59339e-05
2.60513e-05
2.60647e-05
2.59833e-05
2.58142e-05
2.54577e-05
1.75165e-05
1.76185e-05
1.78694e-05
1.83173e-05
1.88706e-05
1.9438e-05
1.99504e-05
2.03955e-05
2.07882e-05
2.11373e-05
2.14376e-05
2.16683e-05
2.18117e-05
2.18607e-05
2.18216e-05
2.17004e-05
2.14142e-05
1.47033e-05
1.48014e-05
1.50139e-05
1.53765e-05
1.5822e-05
1.62823e-05
1.67037e-05
1.70758e-05
1.74093e-05
1.77105e-05
1.79742e-05
1.81818e-05
1.83176e-05
1.83743e-05
1.83557e-05
1.82666e-05
1.80416e-05
1.27023e-05
1.27814e-05
1.29468e-05
1.32246e-05
1.35661e-05
1.39206e-05
1.42471e-05
1.45377e-05
1.48004e-05
1.50399e-05
1.52515e-05
1.54198e-05
1.55314e-05
1.55795e-05
1.55668e-05
1.54966e-05
1.53198e-05
1.13982e-05
1.14404e-05
1.15448e-05
1.17308e-05
1.19654e-05
1.22123e-05
1.24412e-05
1.26457e-05
1.28321e-05
1.30038e-05
1.31569e-05
1.32786e-05
1.3358e-05
1.3389e-05
1.33736e-05
1.33126e-05
1.31777e-05
1.0797e-05
1.07766e-05
1.07967e-05
1.08724e-05
1.0986e-05
1.11149e-05
1.12375e-05
1.13486e-05
1.14523e-05
1.15509e-05
1.1641e-05
1.17124e-05
1.17563e-05
1.17682e-05
1.17498e-05
1.17011e-05
1.16212e-05
1.07939e-05
1.06951e-05
1.06244e-05
1.05907e-05
1.05885e-05
1.06063e-05
1.06305e-05
1.06574e-05
1.06888e-05
1.07259e-05
1.07659e-05
1.08023e-05
1.08299e-05
1.0847e-05
1.08578e-05
1.08655e-05
1.09146e-05
1.11091e-05
1.09649e-05
1.08489e-05
1.07608e-05
1.0699e-05
1.06607e-05
1.06417e-05
1.06416e-05
1.06616e-05
1.07027e-05
1.07645e-05
1.08477e-05
1.09564e-05
1.10989e-05
1.12878e-05
1.15327e-05
1.19535e-05
1.15317e-05
1.13982e-05
1.13316e-05
1.13047e-05
1.13084e-05
1.13448e-05
1.1422e-05
1.15476e-05
1.17259e-05
1.19609e-05
1.22618e-05
1.26501e-05
1.31583e-05
1.38188e-05
1.46475e-05
1.56173e-05
1.6844e-05
1.13652e-05
1.11922e-05
1.12265e-05
1.13928e-05
1.1658e-05
1.20077e-05
1.24511e-05
1.3011e-05
1.37062e-05
1.45527e-05
1.55774e-05
1.68318e-05
1.83646e-05
2.01648e-05
2.21182e-05
2.4021e-05
2.5796e-05
8.19143e-06
7.83021e-06
7.75541e-06
8.05348e-06
8.59712e-06
9.31003e-06
1.01797e-05
1.12684e-05
1.26558e-05
1.44006e-05
1.655e-05
1.91473e-05
2.21574e-05
2.53747e-05
2.84656e-05
3.10133e-05
3.29868e-05
3.08116e-06
2.84786e-06
2.7471e-06
2.88149e-06
3.16577e-06
3.53819e-06
4.00034e-06
4.64231e-06
5.62128e-06
7.16228e-06
9.57987e-06
1.31051e-05
1.74959e-05
2.21008e-05
2.6333e-05
2.96224e-05
3.18926e-05
6.5941e-07
6.01696e-07
5.73335e-07
5.99888e-07
6.62091e-07
7.40199e-07
8.34882e-07
9.7201e-07
1.19939e-06
1.60282e-06
2.36174e-06
3.78905e-06
6.20919e-06
9.66902e-06
1.36949e-05
1.72161e-05
1.95539e-05
3.67704e-08
3.33975e-08
3.17436e-08
3.31963e-08
3.66065e-08
4.07093e-08
4.55751e-08
5.27299e-08
6.48339e-08
8.66688e-08
1.28817e-07
2.12912e-07
3.79329e-07
7.05337e-07
1.27964e-06
1.97872e-06
2.53662e-06
2.99014e-05
2.96777e-05
2.94778e-05
2.92997e-05
2.91424e-05
2.90052e-05
2.88873e-05
2.87882e-05
2.87079e-05
2.86463e-05
2.8604e-05
2.85817e-05
2.85805e-05
2.86018e-05
2.86507e-05
2.87386e-05
2.52131e-05
2.49929e-05
2.47849e-05
2.45889e-05
2.44049e-05
2.42334e-05
2.40749e-05
2.39298e-05
2.37986e-05
2.36821e-05
2.3581e-05
2.34962e-05
2.34289e-05
2.33804e-05
2.33549e-05
2.3362e-05
2.12206e-05
2.10404e-05
2.08649e-05
2.06943e-05
2.0529e-05
2.03699e-05
2.02176e-05
2.00728e-05
1.99364e-05
1.98091e-05
1.96918e-05
1.95852e-05
1.94905e-05
1.94086e-05
1.93426e-05
1.92996e-05
1.78932e-05
1.77522e-05
1.76126e-05
1.74747e-05
1.73389e-05
1.7206e-05
1.70765e-05
1.69511e-05
1.68305e-05
1.67153e-05
1.66061e-05
1.65036e-05
1.64087e-05
1.63221e-05
1.62455e-05
1.61837e-05
1.52068e-05
1.50979e-05
1.49895e-05
1.48818e-05
1.47751e-05
1.46699e-05
1.45665e-05
1.44655e-05
1.43672e-05
1.42721e-05
1.41807e-05
1.40934e-05
1.40108e-05
1.39334e-05
1.38623e-05
1.38008e-05
1.3094e-05
1.30135e-05
1.29341e-05
1.28559e-05
1.27789e-05
1.27032e-05
1.26289e-05
1.25563e-05
1.24853e-05
1.24161e-05
1.23489e-05
1.2284e-05
1.22216e-05
1.21619e-05
1.21057e-05
1.20562e-05
1.15733e-05
1.15304e-05
1.14913e-05
1.14557e-05
1.14232e-05
1.13933e-05
1.13652e-05
1.13385e-05
1.13125e-05
1.12868e-05
1.12608e-05
1.12343e-05
1.1207e-05
1.1179e-05
1.11504e-05
1.11262e-05
1.09543e-05
1.1006e-05
1.10683e-05
1.11393e-05
1.12159e-05
1.12948e-05
1.13725e-05
1.1446e-05
1.15125e-05
1.157e-05
1.16171e-05
1.16531e-05
1.16781e-05
1.16925e-05
1.16951e-05
1.16886e-05
1.22736e-05
1.26131e-05
1.29605e-05
1.32991e-05
1.3612e-05
1.38856e-05
1.41111e-05
1.42844e-05
1.44057e-05
1.44779e-05
1.45057e-05
1.4495e-05
1.44493e-05
1.43703e-05
1.42596e-05
1.4126e-05
1.77793e-05
1.86077e-05
1.92805e-05
1.97616e-05
2.0045e-05
2.01481e-05
2.01e-05
1.99331e-05
1.96778e-05
1.93604e-05
1.90021e-05
1.8615e-05
1.82114e-05
1.7801e-05
1.73887e-05
1.69837e-05
2.70002e-05
2.77157e-05
2.79592e-05
2.78148e-05
2.7384e-05
2.67588e-05
2.60141e-05
2.52063e-05
2.43749e-05
2.35464e-05
2.27371e-05
2.19584e-05
2.1216e-05
2.05131e-05
1.98472e-05
1.92283e-05
3.41644e-05
3.44967e-05
3.41987e-05
3.34554e-05
3.24256e-05
3.12367e-05
2.99831e-05
2.87281e-05
2.75095e-05
2.63467e-05
2.52478e-05
2.42158e-05
2.32505e-05
2.23516e-05
2.15098e-05
2.07495e-05
3.33377e-05
3.38306e-05
3.36267e-05
3.29192e-05
3.18738e-05
3.06289e-05
2.92912e-05
2.79338e-05
2.66013e-05
2.53163e-05
2.40886e-05
2.2923e-05
2.18219e-05
2.07892e-05
1.98122e-05
1.8943e-05
2.11759e-05
2.19746e-05
2.20918e-05
2.16922e-05
2.0919e-05
1.98969e-05
1.87298e-05
1.7497e-05
1.62516e-05
1.50259e-05
1.38394e-05
1.27084e-05
1.16465e-05
1.0667e-05
9.76072e-06
8.97173e-06
2.97323e-06
3.20266e-06
3.2315e-06
3.10975e-06
2.88768e-06
2.61164e-06
2.31859e-06
2.03303e-06
1.76803e-06
1.52886e-06
1.3169e-06
1.1325e-06
9.75065e-07
8.43254e-07
7.31972e-07
6.43027e-07
2.90458e-05
2.90833e-05
2.9024e-05
2.89048e-05
2.8732e-05
2.8527e-05
2.83164e-05
2.81236e-05
2.7948e-05
2.77673e-05
2.7546e-05
2.72717e-05
2.69912e-05
2.67785e-05
2.67192e-05
2.68252e-05
2.65389e-05
2.35627e-05
2.35334e-05
2.34442e-05
2.33141e-05
2.31443e-05
2.29455e-05
2.27341e-05
2.25262e-05
2.23232e-05
2.21128e-05
2.18758e-05
2.16108e-05
2.13579e-05
2.11743e-05
2.11247e-05
2.12296e-05
2.10859e-05
1.94096e-05
1.93325e-05
1.92148e-05
1.90683e-05
1.88941e-05
1.87002e-05
1.8499e-05
1.83033e-05
1.81157e-05
1.7929e-05
1.77316e-05
1.75242e-05
1.73365e-05
1.72096e-05
1.71893e-05
1.72858e-05
1.72156e-05
1.624e-05
1.61459e-05
1.60236e-05
1.58812e-05
1.57203e-05
1.55476e-05
1.5373e-05
1.52065e-05
1.50506e-05
1.4901e-05
1.47502e-05
1.45997e-05
1.44703e-05
1.43904e-05
1.43914e-05
1.44781e-05
1.44486e-05
1.38292e-05
1.37391e-05
1.36304e-05
1.35085e-05
1.33755e-05
1.32367e-05
1.30997e-05
1.29717e-05
1.28547e-05
1.27466e-05
1.26427e-05
1.25444e-05
1.2465e-05
1.24215e-05
1.24335e-05
1.25047e-05
1.24978e-05
1.20723e-05
1.20014e-05
1.19211e-05
1.18348e-05
1.17446e-05
1.16541e-05
1.15678e-05
1.14896e-05
1.14209e-05
1.13608e-05
1.13075e-05
1.12611e-05
1.12262e-05
1.12092e-05
1.1219e-05
1.12604e-05
1.12603e-05
1.1135e-05
1.10985e-05
1.1063e-05
1.10292e-05
1.09981e-05
1.09699e-05
1.09443e-05
1.0921e-05
1.09e-05
1.08817e-05
1.08662e-05
1.08519e-05
1.08359e-05
1.08171e-05
1.07982e-05
1.07825e-05
1.0758e-05
1.16501e-05
1.16272e-05
1.16096e-05
1.15953e-05
1.15826e-05
1.15683e-05
1.15484e-05
1.15194e-05
1.1481e-05
1.14343e-05
1.13808e-05
1.13198e-05
1.12478e-05
1.11635e-05
1.10699e-05
1.09635e-05
1.08703e-05
1.38827e-05
1.37272e-05
1.35804e-05
1.3439e-05
1.33008e-05
1.3162e-05
1.30181e-05
1.28655e-05
1.27034e-05
1.25327e-05
1.23555e-05
1.21734e-05
1.19871e-05
1.17987e-05
1.16132e-05
1.1424e-05
1.12572e-05
1.64645e-05
1.60656e-05
1.56948e-05
1.53492e-05
1.50248e-05
1.47159e-05
1.44165e-05
1.41212e-05
1.38262e-05
1.353e-05
1.32326e-05
1.29365e-05
1.26463e-05
1.23696e-05
1.21181e-05
1.18826e-05
1.16606e-05
1.85177e-05
1.79094e-05
1.73554e-05
1.68507e-05
1.63844e-05
1.5945e-05
1.55228e-05
1.5109e-05
1.46955e-05
1.42751e-05
1.3842e-05
1.33965e-05
1.29505e-05
1.25256e-05
1.21594e-05
1.18299e-05
1.14599e-05
1.99087e-05
1.91185e-05
1.83999e-05
1.77397e-05
1.71092e-05
1.64883e-05
1.58629e-05
1.52223e-05
1.45524e-05
1.38383e-05
1.30661e-05
1.22381e-05
1.13862e-05
1.0562e-05
9.84684e-06
9.21723e-06
8.52394e-06
1.80574e-05
1.70382e-05
1.60888e-05
1.51775e-05
1.42557e-05
1.32995e-05
1.2301e-05
1.12626e-05
1.01873e-05
9.08348e-06
7.96788e-06
6.8796e-06
5.88064e-06
5.02508e-06
4.35614e-06
3.83766e-06
3.35839e-06
8.31557e-06
7.3765e-06
6.57416e-06
5.8557e-06
5.18588e-06
4.55329e-06
3.95939e-06
3.40991e-06
2.90746e-06
2.45295e-06
2.04706e-06
1.6935e-06
1.39809e-06
1.16174e-06
9.83559e-07
8.49285e-07
7.31351e-07
5.80637e-07
4.83032e-07
4.13541e-07
3.56623e-07
3.07574e-07
2.64422e-07
2.26302e-07
1.92716e-07
1.63135e-07
1.37118e-07
1.14356e-07
9.47782e-08
7.84552e-08
6.52855e-08
5.52026e-08
4.75291e-08
4.0902e-08
2.72836e-07
1.79005e-07
1.19609e-07
2.27761e-07
4.53155e-07
5.34145e-07
5.24403e-07
5.66937e-07
6.99121e-07
8.94402e-07
1.11371e-06
1.58736e-06
2.49501e-06
3.81948e-06
5.62095e-06
5.66827e-06
4.89222e-06
4.87681e-06
3.17972e-06
2.02964e-06
3.59318e-06
5.69724e-06
5.78078e-06
5.43121e-06
5.40554e-06
5.70075e-06
6.09586e-06
6.51806e-06
7.44761e-06
8.671e-06
9.38454e-06
9.7108e-06
1.00632e-05
1.05273e-05
1.69625e-05
1.19981e-05
8.14665e-06
1.13711e-05
1.23906e-05
1.11924e-05
1.01947e-05
9.7051e-06
9.61197e-06
9.73317e-06
9.98801e-06
1.08737e-05
1.20747e-05
1.24891e-05
1.24299e-05
1.28568e-05
1.36715e-05
2.55731e-05
2.04479e-05
1.63635e-05
1.93188e-05
1.77383e-05
1.52591e-05
1.36779e-05
1.27875e-05
1.24051e-05
1.23389e-05
1.24266e-05
1.32436e-05
1.44763e-05
1.49677e-05
1.49392e-05
1.5361e-05
1.62793e-05
3.12084e-05
2.6154e-05
2.21075e-05
2.39059e-05
2.20824e-05
1.87068e-05
1.66261e-05
1.53705e-05
1.47268e-05
1.4507e-05
1.44732e-05
1.53491e-05
1.67637e-05
1.74475e-05
1.75154e-05
1.79209e-05
1.88614e-05
3.5962e-05
3.11646e-05
2.6939e-05
2.75329e-05
2.61079e-05
2.22154e-05
1.95218e-05
1.78802e-05
1.69887e-05
1.66403e-05
1.65632e-05
1.76163e-05
1.92665e-05
2.01585e-05
2.03527e-05
2.07435e-05
2.16636e-05
3.99189e-05
3.56172e-05
3.16321e-05
3.12064e-05
3.04339e-05
2.64987e-05
2.29591e-05
2.0718e-05
1.95492e-05
1.90947e-05
1.9051e-05
2.03408e-05
2.21833e-05
2.32679e-05
2.3637e-05
2.40206e-05
2.49021e-05
4.32494e-05
3.94968e-05
3.60634e-05
3.50403e-05
3.491e-05
3.20088e-05
2.78495e-05
2.46997e-05
2.30451e-05
2.23747e-05
2.23581e-05
2.38227e-05
2.58034e-05
2.70999e-05
2.76345e-05
2.79964e-05
2.88173e-05
4.5848e-05
4.26682e-05
3.99334e-05
3.87387e-05
3.89124e-05
3.78477e-05
3.46567e-05
3.08586e-05
2.82944e-05
2.71315e-05
2.69617e-05
2.8612e-05
3.07329e-05
3.21064e-05
3.26567e-05
3.2956e-05
3.36396e-05
4.75712e-05
4.49162e-05
4.28821e-05
4.18303e-05
4.19819e-05
4.2198e-05
4.12715e-05
3.90518e-05
3.68052e-05
3.46148e-05
3.40774e-05
3.5774e-05
3.73446e-05
3.84099e-05
3.8817e-05
3.89664e-05
3.93816e-05
4.81384e-05
4.59909e-05
4.45721e-05
4.38325e-05
4.38896e-05
4.44281e-05
4.48857e-05
4.4897e-05
4.47057e-05
4.47923e-05
4.40664e-05
4.41819e-05
4.49252e-05
4.5426e-05
4.5549e-05
4.54414e-05
4.54675e-05
4.71897e-05
4.56012e-05
4.47176e-05
4.43352e-05
4.43936e-05
4.48209e-05
4.54969e-05
4.63121e-05
4.72748e-05
4.84397e-05
4.96587e-05
5.00253e-05
5.04051e-05
5.06947e-05
5.07191e-05
5.04822e-05
5.0163e-05
4.44185e-05
4.34444e-05
4.30534e-05
4.30156e-05
4.31854e-05
4.35149e-05
4.40048e-05
4.46745e-05
4.55429e-05
4.65952e-05
4.7741e-05
4.87889e-05
4.97114e-05
5.04095e-05
5.08162e-05
5.08845e-05
5.05273e-05
3.97157e-05
3.93214e-05
3.93533e-05
3.96179e-05
3.99581e-05
4.03178e-05
4.06943e-05
4.11061e-05
4.15639e-05
4.2061e-05
4.25637e-05
4.30092e-05
4.35399e-05
4.4149e-05
4.47255e-05
4.5055e-05
4.48384e-05
3.34051e-05
3.33602e-05
3.35959e-05
3.40329e-05
3.45278e-05
3.50017e-05
3.54162e-05
3.57663e-05
3.60557e-05
3.62845e-05
3.64467e-05
3.65236e-05
3.65975e-05
3.66707e-05
3.67424e-05
3.68243e-05
3.65401e-05
4.16263e-06
3.62743e-06
3.23806e-06
2.93202e-06
2.67778e-06
2.45756e-06
2.26161e-06
2.08475e-06
1.92416e-06
1.77749e-06
1.64434e-06
1.52223e-06
1.41244e-06
1.31176e-06
1.22314e-06
1.14246e-06
1.08151e-05
1.09586e-05
1.09998e-05
1.09656e-05
1.08746e-05
1.07395e-05
1.05701e-05
1.03734e-05
1.01555e-05
9.92056e-06
9.6736e-06
9.41655e-06
9.15436e-06
8.88793e-06
8.61955e-06
8.35552e-06
1.43147e-05
1.47424e-05
1.49973e-05
1.51228e-05
1.51506e-05
1.51048e-05
1.50033e-05
1.4859e-05
1.46819e-05
1.44792e-05
1.42572e-05
1.40198e-05
1.3771e-05
1.35138e-05
1.32468e-05
1.29777e-05
1.70471e-05
1.75871e-05
1.7936e-05
1.81352e-05
1.82175e-05
1.82086e-05
1.81285e-05
1.79924e-05
1.78123e-05
1.75976e-05
1.73562e-05
1.70937e-05
1.68154e-05
1.65251e-05
1.62225e-05
1.59154e-05
1.96779e-05
2.02628e-05
2.06472e-05
2.08687e-05
2.0962e-05
2.09543e-05
2.08679e-05
2.07193e-05
2.05221e-05
2.02864e-05
2.00211e-05
1.97318e-05
1.94249e-05
1.91036e-05
1.87691e-05
1.84281e-05
2.24859e-05
2.30841e-05
2.34811e-05
2.37065e-05
2.37943e-05
2.37726e-05
2.36648e-05
2.34894e-05
2.3261e-05
2.29909e-05
2.26891e-05
2.23617e-05
2.20159e-05
2.16551e-05
2.12814e-05
2.0902e-05
2.56893e-05
2.62624e-05
2.66405e-05
2.68445e-05
2.69062e-05
2.68533e-05
2.67101e-05
2.64958e-05
2.62262e-05
2.59131e-05
2.55675e-05
2.51957e-05
2.4806e-05
2.44016e-05
2.3986e-05
2.35675e-05
2.95151e-05
3.00046e-05
3.03119e-05
3.04506e-05
3.04494e-05
3.03348e-05
3.01304e-05
2.98557e-05
2.9527e-05
2.91563e-05
2.87551e-05
2.833e-05
2.78901e-05
2.74387e-05
2.69809e-05
2.65269e-05
3.4163e-05
3.44858e-05
3.4649e-05
3.46609e-05
3.45454e-05
3.43261e-05
3.40246e-05
3.36595e-05
3.32463e-05
3.2797e-05
3.23229e-05
3.18309e-05
3.13307e-05
3.08261e-05
3.03242e-05
2.98381e-05
3.9633e-05
3.97026e-05
3.96452e-05
3.94672e-05
3.91854e-05
3.88194e-05
3.83867e-05
3.79033e-05
3.73831e-05
3.68372e-05
3.62762e-05
3.57071e-05
3.514e-05
3.45802e-05
3.40365e-05
3.35254e-05
4.53877e-05
4.51696e-05
4.48595e-05
4.44674e-05
4.40027e-05
4.34794e-05
4.29104e-05
4.23081e-05
4.16837e-05
4.1047e-05
4.04075e-05
3.97726e-05
3.91525e-05
3.85546e-05
3.79905e-05
3.74784e-05
4.98506e-05
4.94567e-05
4.89915e-05
4.84717e-05
4.79044e-05
4.72992e-05
4.66656e-05
4.60133e-05
4.53513e-05
4.46882e-05
4.4033e-05
4.33935e-05
4.27808e-05
4.22047e-05
4.16796e-05
4.12234e-05
5.02955e-05
5.00144e-05
4.96601e-05
4.92514e-05
4.87991e-05
4.83125e-05
4.78005e-05
4.7272e-05
4.67356e-05
4.61997e-05
4.56735e-05
4.5166e-05
4.46888e-05
4.42537e-05
4.38767e-05
4.35714e-05
4.48236e-05
4.48047e-05
4.47374e-05
4.46279e-05
4.44827e-05
4.43073e-05
4.41075e-05
4.38898e-05
4.36609e-05
4.3428e-05
4.31988e-05
4.2982e-05
4.27874e-05
4.26258e-05
4.25105e-05
4.24467e-05
3.64374e-05
3.6384e-05
3.634e-05
3.63029e-05
3.62715e-05
3.62451e-05
3.62232e-05
3.62064e-05
3.61957e-05
3.61931e-05
3.62012e-05
3.62233e-05
3.6264e-05
3.63278e-05
3.64219e-05
3.6548e-05
1.0558e-06
1.01299e-06
9.98087e-07
1.01745e-06
1.09419e-06
1.36825e-06
1.79719e-06
1.96303e-06
2.01754e-06
1.95022e-06
1.78095e-06
1.58143e-06
1.408e-06
1.14914e-06
8.37739e-07
4.31021e-07
2.63383e-07
8.02876e-06
7.83854e-06
7.72548e-06
7.69599e-06
7.78664e-06
8.16559e-06
8.90248e-06
9.73226e-06
1.08765e-05
1.21909e-05
1.32474e-05
1.39045e-05
1.44636e-05
1.41451e-05
1.20335e-05
7.30216e-06
4.55788e-06
1.26374e-05
1.2416e-05
1.22407e-05
1.21137e-05
1.20543e-05
1.21696e-05
1.27747e-05
1.39142e-05
1.57469e-05
1.81153e-05
2.04699e-05
2.26328e-05
2.51008e-05
2.71704e-05
2.66727e-05
2.06154e-05
1.54876e-05
1.55342e-05
1.52731e-05
1.50573e-05
1.48903e-05
1.47845e-05
1.48402e-05
1.5471e-05
1.68374e-05
1.90832e-05
2.19959e-05
2.49426e-05
2.77284e-05
3.09424e-05
3.40534e-05
3.48288e-05
2.96055e-05
2.52024e-05
1.80086e-05
1.77116e-05
1.74681e-05
1.72826e-05
1.71648e-05
1.7219e-05
1.79135e-05
1.95046e-05
2.21008e-05
2.54147e-05
2.87746e-05
3.20064e-05
3.56742e-05
3.92059e-05
4.04232e-05
3.57668e-05
3.10494e-05
2.04404e-05
2.01073e-05
1.98451e-05
1.96606e-05
1.95662e-05
1.96791e-05
2.04893e-05
2.23225e-05
2.52473e-05
2.88863e-05
3.2557e-05
3.61273e-05
4.00653e-05
4.36247e-05
4.46215e-05
4.03186e-05
3.57049e-05
2.30632e-05
2.26953e-05
2.24233e-05
2.22585e-05
2.22191e-05
2.24449e-05
2.3436e-05
2.55397e-05
2.8762e-05
3.26342e-05
3.65065e-05
4.02951e-05
4.43093e-05
4.76215e-05
4.81769e-05
4.39857e-05
3.98328e-05
2.59874e-05
2.55953e-05
2.53317e-05
2.52148e-05
2.52728e-05
2.56673e-05
2.69148e-05
2.93095e-05
3.27632e-05
3.67418e-05
4.06779e-05
4.45166e-05
4.83626e-05
5.11752e-05
5.11885e-05
4.70941e-05
4.3427e-05
2.92711e-05
2.88686e-05
2.86356e-05
2.85965e-05
2.87965e-05
2.94077e-05
3.09728e-05
3.36332e-05
3.71992e-05
4.11204e-05
4.49471e-05
4.86166e-05
5.2012e-05
5.40877e-05
5.35027e-05
4.96045e-05
4.63485e-05
3.29439e-05
3.25471e-05
3.2365e-05
3.24281e-05
3.2794e-05
3.36364e-05
3.54993e-05
3.83074e-05
4.17929e-05
4.54435e-05
4.89321e-05
5.21541e-05
5.48087e-05
5.59814e-05
5.48384e-05
5.1317e-05
4.84576e-05
3.69149e-05
3.65492e-05
3.64372e-05
3.66185e-05
3.71405e-05
3.81767e-05
4.01735e-05
4.28778e-05
4.59807e-05
4.90705e-05
5.19264e-05
5.43964e-05
5.60985e-05
5.63739e-05
5.48789e-05
5.19558e-05
4.95856e-05
4.07464e-05
4.04529e-05
4.04209e-05
4.06994e-05
4.133e-05
4.24394e-05
4.42354e-05
4.64272e-05
4.87546e-05
5.09571e-05
5.28987e-05
5.44128e-05
5.51664e-05
5.48011e-05
5.33246e-05
5.12139e-05
4.94769e-05
4.32897e-05
4.31152e-05
4.31321e-05
4.34017e-05
4.39663e-05
4.48729e-05
4.60641e-05
4.73712e-05
4.86645e-05
4.98321e-05
5.0799e-05
5.14332e-05
5.15369e-05
5.0991e-05
4.99498e-05
4.87791e-05
4.77627e-05
4.24636e-05
4.24188e-05
4.24023e-05
4.2487e-05
4.27061e-05
4.30831e-05
4.35425e-05
4.40106e-05
4.44627e-05
4.48637e-05
4.51702e-05
4.53147e-05
4.52446e-05
4.49742e-05
4.46418e-05
4.4375e-05
4.40265e-05
3.68352e-05
3.68912e-05
3.68414e-05
3.6756e-05
3.6668e-05
3.6618e-05
3.66492e-05
3.67401e-05
3.68759e-05
3.70203e-05
3.71295e-05
3.71861e-05
3.72389e-05
3.73641e-05
3.75888e-05
3.79884e-05
3.80703e-05
2.68795e-05
2.68644e-05
2.7072e-05
2.75782e-05
2.82224e-05
2.88622e-05
2.94086e-05
2.98545e-05
3.02251e-05
3.05363e-05
3.07859e-05
3.09523e-05
3.10257e-05
3.10065e-05
3.09039e-05
3.0727e-05
3.03413e-05
2.14724e-05
2.15421e-05
2.18039e-05
2.23179e-05
2.29589e-05
2.36079e-05
2.41807e-05
2.46658e-05
2.50837e-05
2.54473e-05
2.57522e-05
2.59762e-05
2.61017e-05
2.61234e-05
2.60501e-05
2.5889e-05
2.55392e-05
1.75519e-05
1.76493e-05
1.78981e-05
1.83447e-05
1.88968e-05
1.94631e-05
1.99746e-05
2.04193e-05
2.08119e-05
2.11618e-05
2.14637e-05
2.16966e-05
2.18429e-05
2.18951e-05
2.18594e-05
2.17416e-05
2.14586e-05
1.47248e-05
1.48206e-05
1.50326e-05
1.53957e-05
1.58419e-05
1.63027e-05
1.67244e-05
1.70967e-05
1.74303e-05
1.77317e-05
1.79957e-05
1.8204e-05
1.83407e-05
1.83984e-05
1.83812e-05
1.82935e-05
1.80699e-05
1.27127e-05
1.27915e-05
1.29574e-05
1.32367e-05
1.35798e-05
1.39358e-05
1.42636e-05
1.45551e-05
1.48185e-05
1.50584e-05
1.52704e-05
1.5439e-05
1.55509e-05
1.55994e-05
1.55871e-05
1.55175e-05
1.53414e-05
1.14009e-05
1.14454e-05
1.15515e-05
1.17395e-05
1.19762e-05
1.22252e-05
1.24558e-05
1.26618e-05
1.28493e-05
1.30219e-05
1.31755e-05
1.32976e-05
1.33771e-05
1.34084e-05
1.33931e-05
1.33321e-05
1.31978e-05
1.07954e-05
1.0781e-05
1.08045e-05
1.08828e-05
1.0999e-05
1.11301e-05
1.12545e-05
1.13673e-05
1.14724e-05
1.1572e-05
1.16628e-05
1.17347e-05
1.17789e-05
1.17909e-05
1.17727e-05
1.17243e-05
1.16451e-05
1.07895e-05
1.07013e-05
1.06356e-05
1.06053e-05
1.06061e-05
1.06263e-05
1.06527e-05
1.06814e-05
1.07144e-05
1.07527e-05
1.07938e-05
1.0831e-05
1.08592e-05
1.0877e-05
1.08885e-05
1.08975e-05
1.0949e-05
1.10995e-05
1.0967e-05
1.08561e-05
1.07721e-05
1.07144e-05
1.06796e-05
1.06639e-05
1.06667e-05
1.06894e-05
1.0733e-05
1.07972e-05
1.08828e-05
1.09942e-05
1.11402e-05
1.13335e-05
1.15848e-05
1.20156e-05
1.15063e-05
1.13798e-05
1.1317e-05
1.12946e-05
1.13041e-05
1.13465e-05
1.14296e-05
1.15609e-05
1.17451e-05
1.19865e-05
1.22944e-05
1.26913e-05
1.32106e-05
1.38866e-05
1.47363e-05
1.57319e-05
1.69901e-05
1.13402e-05
1.11665e-05
1.12012e-05
1.13672e-05
1.16346e-05
1.19889e-05
1.24387e-05
1.30065e-05
1.37115e-05
1.45705e-05
1.56115e-05
1.68886e-05
1.8454e-05
2.02985e-05
2.23054e-05
2.42613e-05
2.60838e-05
8.28263e-06
7.89261e-06
7.77749e-06
8.04998e-06
8.57669e-06
9.28164e-06
1.01504e-05
1.1244e-05
1.26419e-05
1.44039e-05
1.65802e-05
1.92189e-05
2.22892e-05
2.55828e-05