/*--------------------------------*- C++ -*----------------------------------*\
| =========                 |                                                 |
| \\      /  F ield         | OpenFOAM: The Open Source CFD Toolbox           |
|  \\    /   O peration     | Version:  2.3.x                                 |
|   \\  /    A nd           | Web:      www.OpenFOAM.org                      |
|    \\/     M anipulation  |                                                 |
\*---------------------------------------------------------------------------*/
FoamFile
{
    version     2.0;
    format      ascii;
    class       volScalarField;
    location    "0";
    object      nut;
}
// * * * * * * * * * * * * * * * * * * * * * * * * * * * * * * * * * * * * * //

dimensions      [0 2 -1 0 0 0 0];

internalField   nonuniform List<scalar> 
3000
(
2.47068e-09
1.64499e-09
1.16521e-09
2.91495e-09
1.23534e-08
2.41422e-08
2.93748e-08
4.01895e-08
7.07141e-08
1.35481e-07
2.28832e-07
4.78069e-07
1.71117e-06
8.37922e-06
4.10867e-05
1.35785e-05
5.53285e-06
2.61471e-07
1.50518e-07
9.4697e-08
3.14515e-07
2.25397e-06
4.57503e-06
5.41082e-06
6.86491e-06
1.00675e-05
1.47148e-05
1.91401e-05
2.63106e-05
4.24495e-05
7.25213e-05
0.000112246
8.58351e-05
6.27578e-05
4.31394e-06
2.60194e-06
1.69308e-06
5.6856e-06
1.98123e-05
2.92429e-05
3.19456e-05
3.61936e-05
4.50806e-05
5.70243e-05
6.79949e-05
8.31932e-05
0.000104667
0.000132556
0.000171485
0.000160175
0.000140683
2.04184e-05
1.35468e-05
1.02945e-05
2.4327e-05
5.14773e-05
6.99061e-05
7.75212e-05
8.55498e-05
9.87434e-05
0.000114086
0.000125502
0.000140127
0.000159763
0.000190508
0.000231759
0.000231393
0.000219645
7.14715e-05
4.61397e-05
3.00902e-05
4.28125e-05
7.81138e-05
0.000106336
0.0001226
0.000135552
0.000151372
0.000168622
0.000181132
0.000200071
0.000226401
0.000259278
0.000297409
0.000303917
0.000300304
0.000161744
0.000113357
7.20401e-05
7.24133e-05
0.000106981
0.000140863
0.000164829
0.00018349
0.000203459
0.000225183
0.00024219
0.000268098
0.000301714
0.00033515
0.000368831
0.000380203
0.000383925
0.000269791
0.000203489
0.000137923
0.000118504
0.000144542
0.000178397
0.000208579
0.000233316
0.000258326
0.000285833
0.000308546
0.000341285
0.000379201
0.000412297
0.0004433
0.000459256
0.000470083
0.000395444
0.000312298
0.000224005
0.000182654
0.000193715
0.000223019
0.000253903
0.000285348
0.000317634
0.000349685
0.000378298
0.000414587
0.000455371
0.000490481
0.00052059
0.000540388
0.000557838
0.000536044
0.000439265
0.00033046
0.000266724
0.000257623
0.000278222
0.000306671
0.000337683
0.00037295
0.00041107
0.000445357
0.000486983
0.000534615
0.000572095
0.000601616
0.000624239
0.00064656
0.00068674
0.000581548
0.00045764
0.000373113
0.000340864
0.000345639
0.00036872
0.000399712
0.000437222
0.00047483
0.00051598
0.000567936
0.000615381
0.000653668
0.000683579
0.000708558
0.000733513
0.000837658
0.000732292
0.000602825
0.000502735
0.000448172
0.000431312
0.000439793
0.000464964
0.000502987
0.000548265
0.000593769
0.0006416
0.000688278
0.000727067
0.000758607
0.000785591
0.000811515
0.000973785
0.000878719
0.000757135
0.000651601
0.00058061
0.000542169
0.00052949
0.000537589
0.000563235
0.000602127
0.000648561
0.000692574
0.000736915
0.000776826
0.000811003
0.000840344
0.000866775
0.0010755
0.00100123
0.000902275
0.000806
0.000730088
0.000677339
0.000645469
0.000632594
0.000637261
0.000656763
0.000687211
0.000722091
0.000758659
0.000794611
0.000828148
0.000858218
0.000884197
0.0011203
0.00107412
0.00100904
0.000937611
0.000872514
0.000819121
0.000778714
0.000751635
0.000738012
0.000736838
0.000746077
0.000762361
0.000782783
0.000805121
0.0008283
0.000851037
0.000871306
0.00108538
0.00106781
0.00103924
0.00100251
0.000963174
0.000925698
0.000892934
0.000866346
0.000846813
0.000834555
0.000829117
0.000829332
0.000832919
0.000839384
0.000848287
0.000857854
0.000866701
2.70446e-06
1.59265e-06
1.06886e-06
7.78862e-07
5.95485e-07
4.70522e-07
3.79872e-07
3.11867e-07
2.59569e-07
2.18525e-07
1.86133e-07
1.59921e-07
1.39075e-07
1.21792e-07
1.08285e-07
9.68572e-08
4.90802e-05
4.08405e-05
3.54169e-05
3.14971e-05
2.84061e-05
2.58535e-05
2.36548e-05
2.17241e-05
2.0007e-05
1.84642e-05
1.70843e-05
1.58286e-05
1.47186e-05
1.36992e-05
1.28288e-05
1.20304e-05
0.00012491
0.00011297
0.000103617
9.58027e-05
8.89079e-05
8.2702e-05
7.70339e-05
7.18493e-05
6.71138e-05
6.27903e-05
5.88751e-05
5.53092e-05
5.21269e-05
4.92375e-05
4.67251e-05
4.44847e-05
0.000207418
0.000197391
0.000189279
0.000182131
0.000175325
0.000168609
0.000161883
0.000155168
0.000148528
0.00014202
0.000135734
0.000129685
0.000123978
0.000118568
0.000113564
0.000108964
0.000293143
0.000285857
0.00027945
0.000273465
0.000267542
0.000261503
0.000255295
0.000248941
0.000242507
0.00023605
0.000229654
0.000223339
0.000217209
0.000211231
0.000205493
0.000200032
0.000383008
0.000380021
0.000376639
0.000372812
0.000368467
0.000363576
0.000358196
0.000352417
0.000346354
0.0003401
0.000333769
0.000327408
0.000321127
0.000314924
0.000308865
0.000303029
0.00047598
0.000478264
0.000478915
0.000478193
0.000476286
0.000473326
0.000469483
0.000464918
0.000459798
0.000454257
0.00044844
0.000442423
0.000436338
0.000430206
0.000424095
0.000418099
0.00057031
0.000578115
0.000583258
0.000586195
0.000587308
0.000586876
0.000585165
0.000582406
0.000578813
0.000574561
0.000569823
0.000564706
0.000559363
0.000553841
0.000548228
0.000542618
0.000664091
0.000676658
0.000686026
0.000692673
0.000697041
0.000699491
0.00070034
0.000699866
0.000698313
0.000695885
0.000692775
0.000689124
0.0006851
0.000680786
0.000676296
0.000671743
0.000754121
0.000770097
0.000782851
0.000792779
0.000800258
0.00080565
0.000809267
0.000811393
0.000812277
0.000812136
0.000811173
0.00080955
0.000807455
0.000805005
0.00080235
0.000799632
0.000833664
0.000851867
0.000867118
0.000879742
0.000890012
0.000898231
0.000904668
0.000909579
0.000913199
0.000915739
0.0009174
0.00091836
0.00091882
0.00091894
0.000918906
0.000918895
0.000889939
0.000909971
0.000927347
0.000942392
0.00095532
0.000966364
0.000975746
0.000983683
0.00099038
0.000996032
0.00100084
0.00100498
0.00100867
0.0010121
0.00101551
0.00101906
0.000907717
0.000929093
0.000948256
0.000965471
0.000980923
0.000994783
0.00100722
0.0010184
0.0010285
0.00103768
0.00104612
0.001054
0.00106152
0.00106891
0.00107638
0.00108407
0.00089062
0.000909373
0.000927089
0.0009438
0.000959553
0.000974396
0.00098839
0.00100161
0.00101415
0.00102611
0.00103761
0.00104877
0.00105975
0.00107072
0.00108186
0.00109315
0.000875906
0.000885786
0.000895915
0.000906229
0.000916682
0.000927233
0.00093785
0.000948515
0.000959223
0.000969984
0.000980823
0.000991779
0.00100291
0.00101429
0.00102599
0.00103794
8.55042e-08
8.12002e-08
8.13766e-08
8.74881e-08
1.05479e-07
1.83797e-07
3.4343e-07
3.40976e-07
2.55531e-07
1.60156e-07
9.50114e-08
5.93727e-08
3.66423e-08
1.99126e-08
1.06472e-08
4.7229e-09
3.25468e-09
1.11722e-05
1.08411e-05
1.08542e-05
1.13474e-05
1.26735e-05
1.70945e-05
2.26526e-05
2.24966e-05
1.96766e-05
1.55862e-05
1.16477e-05
8.67905e-06
6.0798e-06
3.39912e-06
1.57277e-06
6.29886e-07
3.83714e-07
4.21027e-05
4.10513e-05
4.10023e-05
4.21552e-05
4.52489e-05
5.40258e-05
6.67411e-05
7.01012e-05
6.63016e-05
5.77385e-05
4.75225e-05
3.84622e-05
3.05735e-05
2.2272e-05
1.45605e-05
8.26989e-06
5.77284e-06
0.000103639
0.00010113
0.000100576
0.000102169
0.000106532
0.000117294
0.000135889
0.000145593
0.000145613
0.000137224
0.000122513
0.000105182
8.93321e-05
7.6771e-05
6.64453e-05
4.4966e-05
2.80487e-05
0.000193021
0.00018979
0.000188894
0.000190372
0.000194147
0.000202868
0.000222484
0.000237522
0.000243331
0.000239526
0.000226659
0.000207741
0.000189408
0.000178367
0.000171886
0.000140249
9.49703e-05
0.000295063
0.000291573
0.000290847
0.000292627
0.000296262
0.000303441
0.00032365
0.000343867
0.00035618
0.000358286
0.00034882
0.000330364
0.000312113
0.000303536
0.000298084
0.000256429
0.000197062
0.00040949
0.000405845
0.000405474
0.000407814
0.000411732
0.000418242
0.000439336
0.000465024
0.000484696
0.000493732
0.000488883
0.000472445
0.00045549
0.00044878
0.000442506
0.000391832
0.00031775
0.000534134
0.000530808
0.00053125
0.00053464
0.00053955
0.000546597
0.000569202
0.000600223
0.000627377
0.00064373
0.000644532
0.000631875
0.000617352
0.000611066
0.000600881
0.000541795
0.000455462
0.000664284
0.000661954
0.000663847
0.000668966
0.000676014
0.000685452
0.000710978
0.000746657
0.000780257
0.00080321
0.000810097
0.000802697
0.000791175
0.000783045
0.000765666
0.000700165
0.000606186
0.000794196
0.000793676
0.000797739
0.000805393
0.000815741
0.000829448
0.000859021
0.000898131
0.00093593
0.000963463
0.000975619
0.00097354
0.000964181
0.0009516
0.000925142
0.000856837
0.000762523
0.000916571
0.000918784
0.000925743
0.000936816
0.000951219
0.000970233
0.00100328
0.00104343
0.00108166
0.00111025
0.00112513
0.00112643
0.00111722
0.00109877
0.00106458
0.000998995
0.000912509
0.00102092
0.00102668
0.00103684
0.00105128
0.00106983
0.00109326
0.00112633
0.00116293
0.00119645
0.0012215
0.00123531
0.00123692
0.00122636
0.00120378
0.00116731
0.0011114
0.00104037
0.00109087
0.00110041
0.00111297
0.00112901
0.00114891
0.0011726
0.00120017
0.00122787
0.00125204
0.00126983
0.00127949
0.00127951
0.00126879
0.00124755
0.00121706
0.00117735
0.00112707
0.00110451
0.00111656
0.00112911
0.00114307
0.00115889
0.00117636
0.00119453
0.00121131
0.00122549
0.00123587
0.00124128
0.00124048
0.00123291
0.00121933
0.00120187
0.00118132
0.00115218
0.00105093
0.00106262
0.00107244
0.00108143
0.00108999
0.00109841
0.00110722
0.00111556
0.00112294
0.00112841
0.00113087
0.00112976
0.00112594
0.00112105
0.00111693
0.00111094
0.00109657
0.000971782
0.000970389
0.000966368
0.000958663
0.000946395
0.000931126
0.000915232
0.000900162
0.000886663
0.000875341
0.000866743
0.00086121
0.000858468
0.000858125
0.000859646
0.000862421
0.000863763
0.000821081
0.000825511
0.000832765
0.000842536
0.000850598
0.000855002
0.00085596
0.000854609
0.000851973
0.000848796
0.000845662
0.000843027
0.00084109
0.000839846
0.000839118
0.000838514
0.000834833
0.000659952
0.000666372
0.000678029
0.000695688
0.000714572
0.00073111
0.00074375
0.000752957
0.000759719
0.000764742
0.000768402
0.000770821
0.000772088
0.00077229
0.000771514
0.000769596
0.000762663
0.000492722
0.000499521
0.000512473
0.000532881
0.000556291
0.00057878
0.00059792
0.000613641
0.000626769
0.000637875
0.00064708
0.000654095
0.000658725
0.000660964
0.000661024
0.000658874
0.000649833
0.000333399
0.000339402
0.000351202
0.000370232
0.000392925
0.000415826
0.000436383
0.000454225
0.000469964
0.000484003
0.000496248
0.000506087
0.000513041
0.000516935
0.000517974
0.000516137
0.000505874
0.000202615
0.00020671
0.000215268
0.000229538
0.000247154
0.000265619
0.00028284
0.000298369
0.000312602
0.000325779
0.000337686
0.000347582
0.000354825
0.000359085
0.000360467
0.000358745
0.000348125
0.000113899
0.000115457
0.000119815
0.000127867
0.000138332
0.000149731
0.000160686
0.000170844
0.000180428
0.000189565
0.000198037
0.00020519
0.000210412
0.000213328
0.000213936
0.000211864
0.000202191
6.23939e-05
6.17954e-05
6.27443e-05
6.57265e-05
7.01233e-05
7.51795e-05
8.01531e-05
8.48429e-05
8.93693e-05
9.37951e-05
9.79734e-05
0.000101477
0.000103888
0.000104935
0.000104606
0.000102679
9.64224e-05
3.34012e-05
3.20409e-05
3.15836e-05
3.21684e-05
3.34735e-05
3.51364e-05
3.68253e-05
3.84637e-05
4.01182e-05
4.18234e-05
4.35142e-05
4.49993e-05
4.60971e-05
4.67087e-05
4.68865e-05
4.66621e-05
4.52853e-05
1.7638e-05
1.677e-05
1.64466e-05
1.6651e-05
1.72174e-05
1.79857e-05
1.88357e-05
1.97583e-05
2.07968e-05
2.19808e-05
2.33099e-05
2.47585e-05
2.63271e-05
2.80642e-05
3.00674e-05
3.2392e-05
3.48371e-05
9.65785e-06
9.31976e-06
9.3392e-06
9.72269e-06
1.03909e-05
1.12667e-05
1.23162e-05
1.35717e-05
1.50903e-05
1.69245e-05
1.913e-05
2.17775e-05
2.49346e-05
2.86033e-05
3.26501e-05
3.67814e-05
4.0529e-05
3.69524e-06
3.45339e-06
3.43663e-06
3.76887e-06
4.37445e-06
5.20987e-06
6.28302e-06
7.69325e-06
9.58864e-06
1.21142e-05
1.53972e-05
1.95153e-05
2.43976e-05
2.97382e-05
3.50472e-05
3.97014e-05
4.3275e-05
4.51406e-07
4.01647e-07
3.84069e-07
4.2839e-07
5.22662e-07
6.60376e-07
8.53738e-07
1.16028e-06
1.71155e-06
2.77817e-06
4.88005e-06
8.64849e-06
1.41084e-05
2.04103e-05
2.65466e-05
3.15259e-05
3.49196e-05
3.16879e-08
2.85487e-08
2.72225e-08
2.96607e-08
3.49962e-08
4.20678e-08
5.10693e-08
6.45329e-08
8.81727e-08
1.3598e-07
2.51137e-07
5.70624e-07
1.46071e-06
3.52188e-06
6.94691e-06
1.05898e-05
1.31702e-05
4.50003e-10
4.09576e-10
3.92396e-10
4.24985e-10
4.94271e-10
5.80807e-10
6.84973e-10
8.33248e-10
1.07633e-09
1.5142e-09
2.38713e-09
4.24183e-09
8.36237e-09
1.84123e-08
4.31077e-08
8.24706e-08
1.19568e-07
0.000866061
0.000868969
0.000872247
0.000875877
0.000879856
0.000884181
0.000888851
0.000893866
0.000899231
0.000904955
0.000911053
0.000917547
0.000924468
0.000931857
0.000939815
0.000948453
0.000833008
0.000831726
0.00083072
0.00082999
0.000829544
0.000829397
0.000829562
0.000830056
0.000830897
0.000832106
0.000833707
0.000835727
0.000838203
0.000841179
0.000844764
0.000849158
0.000758674
0.00075521
0.000751956
0.000748915
0.000746097
0.000743518
0.000741194
0.000739143
0.000737387
0.000735947
0.000734851
0.000734127
0.00073381
0.000733944
0.000734623
0.000736084
0.000644917
0.000640492
0.000636235
0.000632147
0.000628229
0.00062449
0.000620945
0.000617611
0.00061451
0.000611666
0.00060911
0.000606876
0.000605002
0.000603533
0.000602544
0.000602245
0.000500804
0.000496131
0.000491575
0.000487128
0.000482781
0.000478542
0.000474426
0.000470457
0.000466669
0.000463098
0.000459786
0.000456779
0.000454124
0.000451874
0.000450083
0.000448876
0.000343288
0.000338707
0.000334189
0.00032972
0.000325299
0.000320943
0.000316688
0.000312578
0.000308664
0.000304998
0.000301633
0.000298617
0.000295994
0.000293802
0.000292061
0.000290776
0.000197915
0.000193829
0.000189842
0.000185953
0.000182183
0.000178573
0.000175175
0.000172037
0.000169203
0.000166705
0.000164565
0.000162794
0.000161395
0.000160366
0.000159617
0.000159301
9.37819e-05
9.14154e-05
8.92977e-05
8.74367e-05
8.58545e-05
8.45699e-05
8.35898e-05
8.29082e-05
8.25076e-05
8.23633e-05
8.2447e-05
8.27326e-05
8.31985e-05
8.37846e-05
8.44803e-05
8.53784e-05
4.53012e-05
4.56305e-05
4.62423e-05
4.70964e-05
4.81406e-05
4.93147e-05
5.05603e-05
5.1828e-05
5.30801e-05
5.42901e-05
5.54426e-05
5.65123e-05
5.74919e-05
5.83903e-05
5.92098e-05
5.99877e-05
3.72724e-05
3.97109e-05
4.20075e-05
4.40498e-05
4.5779e-05
4.71817e-05
4.82745e-05
4.9091e-05
4.96711e-05
5.00543e-05
5.02762e-05
5.03632e-05
5.03372e-05
5.02177e-05
5.00141e-05
4.97609e-05
4.33894e-05
4.55835e-05
4.70873e-05
4.79615e-05
4.83089e-05
4.82374e-05
4.78457e-05
4.72175e-05
4.64199e-05
4.55054e-05
4.45135e-05
4.34753e-05
4.24124e-05
4.13422e-05
4.02675e-05
3.92191e-05
4.55597e-05
4.67392e-05
4.69848e-05
4.65018e-05
4.54937e-05
4.41374e-05
4.25743e-05
4.09087e-05
3.92109e-05
3.75249e-05
3.58762e-05
3.42834e-05
3.27564e-05
3.1302e-05
2.99085e-05
2.8618e-05
3.70281e-05
3.78856e-05
3.7734e-05
3.68357e-05
3.54293e-05
3.37189e-05
3.18649e-05
2.99786e-05
2.81264e-05
2.63414e-05
2.46371e-05
2.30207e-05
2.14952e-05
2.00655e-05
1.87086e-05
1.7508e-05
1.49527e-05
1.58325e-05
1.59001e-05
1.53636e-05
1.44144e-05
1.3221e-05
1.19199e-05
1.0607e-05
9.33994e-06
8.14845e-06
7.04811e-06
6.05098e-06
5.16527e-06
4.39614e-06
3.72616e-06
3.18587e-06
1.52351e-07
1.71073e-07
1.72825e-07
1.6176e-07
1.43259e-07
1.22178e-07
1.01802e-07
8.37157e-08
6.83056e-08
5.53986e-08
4.47213e-08
3.60713e-08
2.92389e-08
2.39658e-08
1.98408e-08
1.67831e-08
0.000959033
0.000967502
0.000973661
0.00097822
0.000981166
0.000982812
0.00098366
0.000984217
0.000984472
0.000983861
0.000981471
0.000977016
0.000971949
0.000968693
0.000969882
0.00097389
0.000968765
0.000856577
0.000860323
0.000862031
0.000862183
0.000860671
0.000857687
0.000853672
0.000849135
0.000844157
0.000838343
0.000831034
0.00082223
0.000813653
0.000807979
0.000808218
0.000813589
0.000810705
0.000741519
0.000741524
0.0007394
0.000735558
0.000729899
0.000722654
0.000714335
0.000705547
0.000696438
0.000686662
0.000675612
0.000663414
0.000652034
0.000644383
0.000643699
0.000649099
0.000646129
0.000606869
0.000604247
0.00059927
0.000592325
0.000583364
0.000572744
0.000561122
0.000549247
0.000537319
0.000525003
0.000511706
0.000497651
0.000484955
0.000476543
0.000475567
0.00048085
0.000477551
0.000453145
0.000448989
0.000442418
0.000433829
0.000423294
0.000411336
0.000398752
0.000386349
0.000374303
0.000362265
0.000349677
0.000336786
0.000325504
0.000318269
0.000317662
0.000322449
0.000319405
0.000294619
0.000290564
0.000284565
0.000277015
0.0002681
0.000258376
0.000248541
0.000239208
0.000230426
0.000221854
0.000213038
0.000204143
0.000196477
0.00019163
0.000191333
0.000194741
0.000192347
0.000162628
0.000160714
0.000157741
0.000153951
0.000149474
0.000144628
0.000139776
0.000135202
0.000130873
0.000126557
0.000121967
0.000117162
0.00011283
0.000109843
0.000109232
0.000110623
0.000108495
8.79627e-05
8.82578e-05
8.80487e-05
8.73877e-05
8.6282e-05
8.48162e-05
8.31068e-05
8.12578e-05
7.92477e-05
7.69647e-05
7.42659e-05
7.11782e-05
6.80759e-05
6.54696e-05
6.39895e-05
6.34637e-05
6.09625e-05
6.1183e-05
6.1586e-05
6.16278e-05
6.13e-05
6.05723e-05
5.94584e-05
5.80051e-05
5.62718e-05
5.42605e-05
5.1927e-05
4.92138e-05
4.61732e-05
4.307e-05
4.02407e-05
3.80699e-05
3.64826e-05
3.39423e-05
4.95754e-05
4.89943e-05
4.81291e-05
4.69797e-05
4.55233e-05
4.37699e-05
4.17586e-05
3.95425e-05
3.71434e-05
3.45617e-05
3.18001e-05
2.89319e-05
2.61433e-05
2.36419e-05
2.16357e-05
2.00857e-05
1.838e-05
3.82254e-05
3.68945e-05
3.54043e-05
3.37648e-05
3.19636e-05
3.00105e-05
2.79393e-05
2.57982e-05
2.36205e-05
2.14266e-05
1.92331e-05
1.70873e-05
1.50908e-05
1.33589e-05
1.20072e-05
1.10043e-05
1.00279e-05
2.73667e-05
2.58579e-05
2.43088e-05
2.27261e-05
2.10815e-05
1.93702e-05
1.76144e-05
1.58487e-05
1.40967e-05
1.23702e-05
1.06777e-05
9.05263e-06
7.57078e-06
6.31437e-06
5.35949e-06
4.65091e-06
3.98169e-06
1.63469e-05
1.48875e-05
1.34751e-05
1.20841e-05
1.06699e-05
9.2359e-06
7.81552e-06
6.45326e-06
5.18491e-06
4.03883e-06
3.03929e-06
2.21347e-06
1.58188e-06
1.13639e-06
8.48886e-07
6.64519e-07
5.21957e-07
2.77142e-06
2.19748e-06
1.74665e-06
1.37687e-06
1.06674e-06
8.1014e-07
6.04594e-07
4.45749e-07
3.26134e-07
2.37517e-07
1.72548e-07
1.25644e-07
9.26131e-08
6.98034e-08
5.45708e-08
4.43157e-08
3.61698e-08
1.4853e-08
1.17612e-08
9.67132e-09
8.00695e-09
6.61121e-09
5.42377e-09
4.41819e-09
3.57591e-09
2.87515e-09
2.29448e-09
1.81575e-09
1.42745e-09
1.12249e-09
8.9086e-10
7.23825e-10
6.04911e-10
5.06392e-10
2.8141e-09
1.92542e-09
1.43513e-09
3.60429e-09
1.35245e-08
2.41397e-08
2.81297e-08
3.7498e-08
6.36889e-08
1.15896e-07
1.93645e-07
4.11313e-07
1.28939e-06
5.58627e-06
2.94272e-05
2.32329e-05
9.6277e-06
3.1439e-07
1.85637e-07
1.23308e-07
4.3208e-07
2.5194e-06
4.58992e-06
5.22221e-06
6.51898e-06
9.40996e-06
1.3514e-05
1.76704e-05
2.47362e-05
3.8429e-05
6.39612e-05
0.000106502
0.000103945
7.65025e-05
5.09608e-06
3.23699e-06
2.30097e-06
7.33296e-06
2.11114e-05
2.92582e-05
3.1317e-05
3.52198e-05
4.35236e-05
5.45773e-05
6.56463e-05
8.19417e-05
0.000102634
0.000129705
0.000166892
0.000176367
0.000156492
2.10299e-05
1.48568e-05
1.22785e-05
2.81544e-05
5.49477e-05
7.15439e-05
7.80507e-05
8.56615e-05
9.84885e-05
0.000113296
0.00012603
0.000142736
0.000160822
0.00019025
0.000231919
0.000245245
0.000234796
7.04433e-05
4.69137e-05
3.27001e-05
4.82273e-05
8.38455e-05
0.000111149
0.000126314
0.000138648
0.000153962
0.000170412
0.000184459
0.000205333
0.00022945
0.000261633
0.000301525
0.000316546
0.000314557
0.000159775
0.000112636
7.43434e-05
7.89208e-05
0.000114103
0.000147462
0.000171211
0.000189374
0.000208679
0.000228799
0.000246818
0.000274915
0.000306719
0.000339753
0.000375327
0.00039204
0.000397212
0.000267134
0.0002017
0.000138934
0.000124561
0.000152144
0.000186002
0.000216048
0.000240459
0.000265174
0.000290362
0.000313557
0.000348856
0.000385782
0.000418801
0.00045152
0.000470498
0.000482492
0.000391016
0.000309326
0.000223433
0.00018698
0.000200924
0.00023065
0.000262009
0.000293272
0.000324992
0.000354866
0.000383814
0.000422807
0.000463525
0.000498917
0.000530476
0.000551513
0.000569658
0.000529234
0.000434599
0.000328082
0.000268536
0.000263326
0.000285493
0.000314299
0.000345665
0.000381403
0.000417801
0.000452231
0.000495662
0.00054325
0.000581906
0.00061232
0.000635405
0.000657938
0.000677703
0.000575055
0.000453322
0.000372028
0.000343801
0.000351571
0.000376015
0.000407246
0.000444599
0.000481571
0.00052236
0.000575268
0.000623849
0.000663494
0.000694223
0.000719539
0.000744476
0.000827179
0.000724413
0.000596827
0.00049891
0.000447605
0.00043423
0.000445472
0.000472334
0.000510894
0.000555917
0.000600254
0.000649282
0.000696765
0.000736568
0.000768904
0.00079629
0.000822234
0.000963215
0.000870413
0.000750261
0.000645893
0.000576877
0.000541223
0.000531566
0.000542395
0.000570081
0.000610214
0.000656967
0.000701083
0.000745947
0.000786533
0.000821345
0.000851092
0.000877654
0.00106657
0.000993808
0.000895752
0.000799875
0.000724667
0.000673357
0.000643567
0.000633094
0.000640112
0.000661644
0.000693632
0.000729526
0.000766994
0.000803759
0.000838011
0.000868613
0.000894876
0.0011146
0.00106895
0.0010042
0.000932713
0.000867498
0.00081432
0.00077463
0.000748729
0.000736564
0.00073693
0.000747636
0.000765233
0.000786872
0.000810413
0.000834721
0.000858366
0.000879166
0.00108355
0.00106578
0.00103709
0.00100009
0.000960349
0.000922494
0.000889536
0.000863016
0.00084381
0.000832079
0.000827291
0.000828212
0.00083259
0.000839909
0.000849638
0.000860041
0.00086949
4.37556e-06
2.34924e-06
1.4644e-06
1.00479e-06
7.34816e-07
5.60687e-07
4.40618e-07
3.54e-07
2.89553e-07
2.40298e-07
2.02273e-07
1.72084e-07
1.4843e-07
1.29099e-07
1.14155e-07
1.0168e-07
5.7934e-05
4.6742e-05
3.96298e-05
3.46098e-05
3.07984e-05
2.77326e-05
2.5163e-05
2.29519e-05
2.10198e-05
1.93075e-05
1.77933e-05
1.64296e-05
1.52328e-05
1.41432e-05
1.32176e-05
1.23764e-05
0.000137271
0.000122589
0.000111452
0.000102329
9.44761e-05
8.75033e-05
8.12103e-05
7.54973e-05
7.03118e-05
6.5601e-05
6.13537e-05
5.75012e-05
5.40738e-05
5.09738e-05
4.82871e-05
4.59004e-05
0.000219819
0.000207313
0.000197565
0.000189317
0.000181785
0.000174542
0.000167408
0.000160344
0.000153389
0.000146587
0.000140025
0.000133714
0.000127765
0.00012213
0.000116927
0.000112143
0.000305564
0.000296265
0.000288374
0.000281327
0.000274646
0.00026803
0.000261358
0.000254606
0.000247818
0.000241038
0.000234347
0.000227762
0.000221386
0.000215189
0.000209262
0.00020363
0.000395196
0.00039071
0.000386083
0.000381306
0.000376236
0.00037077
0.000364909
0.000358707
0.000352259
0.00034565
0.000338987
0.000332316
0.00032575
0.000319284
0.000312988
0.000306933
0.000487841
0.000489094
0.00048874
0.000487177
0.000484574
0.000481035
0.000476692
0.000471682
0.000466155
0.000460239
0.000454071
0.000447726
0.000441334
0.000434916
0.000428543
0.0004223
0.000581871
0.000589006
0.000593381
0.0005956
0.000596069
0.000595069
0.00059285
0.000589631
0.000585615
0.000580969
0.000575862
0.000570399
0.000564731
0.000558902
0.000553001
0.000547118
0.000675345
0.000687509
0.000696349
0.000702435
0.000706255
0.000708189
0.000708558
0.000707637
0.000705665
0.000702845
0.000699366
0.000695365
0.00069101
0.000686381
0.000681588
0.000676743
0.000765056
0.000780827
0.00079328
0.000802828
0.000809899
0.000814872
0.000818077
0.000819804
0.000820306
0.000819801
0.000818492
0.00081654
0.00081413
0.000811379
0.00080843
0.000805426
0.000844445
0.000862583
0.000877705
0.000890118
0.000900126
0.000908049
0.000914172
0.000918765
0.000922069
0.0009243
0.000925664
0.00092634
0.000926528
0.000926387
0.000926099
0.000925839
0.000900947
0.000921007
0.000938362
0.000953323
0.000966117
0.000976988
0.00098617
0.000993889
0.00100036
0.00100579
0.00101037
0.0010143
0.00101779
0.00102104
0.00102427
0.00102766
0.000918681
0.000940258
0.000959557
0.000976852
0.000992335
0.00100619
0.00101858
0.0010297
0.00103973
0.00104882
0.00105718
0.00106499
0.00107246
0.0010798
0.00108726
0.00109494
0.000899072
0.00091837
0.00093656
0.000953683
0.000969794
0.000984949
0.000999217
0.00101268
0.00102545
0.00103761
0.00104931
0.00106068
0.00107189
0.00108311
0.00109452
0.00110612
0.00087935
0.000889901
0.000900685
0.000911633
0.0009227
0.000933846
0.000945041
0.000956268
0.000967528
0.000978835
0.000990222
0.00100173
0.00101344
0.00102542
0.00103776
0.0010504
8.95457e-08
8.487e-08
8.4953e-08
9.14318e-08
1.10594e-07
1.93878e-07
3.63057e-07
3.55735e-07
2.60494e-07
1.5834e-07
9.29711e-08
5.66012e-08
3.43974e-08
1.76933e-08
9.11845e-09
4.16148e-09
3.05043e-09
1.1488e-05
1.11385e-05
1.11447e-05
1.16531e-05
1.30228e-05
1.75525e-05
2.32108e-05
2.29201e-05
1.9863e-05
1.551e-05
1.15196e-05
8.42448e-06
5.82922e-06
3.07177e-06
1.37747e-06
5.25628e-07
3.51182e-07
4.34019e-05
4.22882e-05
4.2223e-05
4.34386e-05
4.66692e-05
5.57145e-05
6.85655e-05
7.16072e-05
6.72617e-05
5.80121e-05
4.7461e-05
3.79678e-05
2.98724e-05
2.09639e-05
1.3221e-05
7.1229e-06
6.02138e-06
0.000106677
0.000104079
0.000103484
0.000105135
0.000109591
0.00012048
0.000138852
0.000147889
0.000147047
0.000137689
0.000122405
0.000104293
8.75798e-05
7.26943e-05
5.87861e-05
3.55556e-05
2.47078e-05
0.000196519
0.000193199
0.000192244
0.000193735
0.000197538
0.000206294
0.00022554
0.000239683
0.000244361
0.000239387
0.00022578
0.000205907
0.00018624
0.000171406
0.000158391
0.000112323
6.68218e-05
0.000298818
0.000295185
0.000294345
0.000296066
0.000299639
0.000306727
0.000326439
0.000345596
0.000356593
0.000357392
0.000347032
0.000327419
0.000307378
0.00029395
0.000279896
0.000219652
0.000144014
0.000413515
0.000409685
0.000409151
0.000411361
0.000415113
0.000421374
0.000441822
0.000466306
0.000484522
0.000492175
0.000486324
0.000468545
0.000449358
0.000436917
0.000420196
0.000345908
0.000249453
0.00053842
0.000534868
0.000535101
0.000538288
0.000542941
0.000549612
0.000571432
0.000601173
0.00062686
0.00064189
0.00064167
0.000627536
0.000610387
0.000597799
0.000575855
0.000490041
0.000378392
0.000669029
0.000666432
0.000668071
0.000672917
0.00067962
0.000688564
0.000713143
0.000747611
0.000779918
0.000801781
0.000807752
0.000798858
0.000784529
0.000770071
0.00074067
0.000647638
0.000528123
0.000799717
0.000798912
0.000802703
0.000810037
0.000819998
0.000833138
0.00086177
0.000899837
0.000936715
0.000963573
0.000975103
0.000971773
0.000959891
0.000941776
0.000904433
0.000810801
0.000693164
0.000923259
0.000925215
0.000931939
0.000942693
0.000956774
0.00097528
0.00100764
0.00104722
0.00108517
0.00111374
0.00112858
0.00112932
0.00111856
0.00109632
0.0010538
0.000967682
0.000862735
0.00102933
0.00103494
0.00104503
0.00105938
0.00107776
0.001101
0.0011341
0.00117102
0.0012052
0.00123117
0.00124592
0.00124824
0.00123788
0.00121404
0.00117284
0.00110266
0.00101971
0.00110172
0.00111134
0.00112414
0.00114055
0.00116093
0.00118523
0.00121373
0.00124279
0.00126873
0.00128862
0.00130063
0.00130318
0.00129493
0.00127545
0.0012443
0.00119677
0.00114126
0.00111778
0.00113031
0.00114352
0.00115836
0.00117532
0.00119423
0.00121424
0.00123333
0.0012503
0.00126399
0.0012733
0.00127701
0.00127444
0.00126586
0.00125196
0.00122968
0.00120158
0.00106413
0.00107668
0.00108746
0.00109761
0.00110759
0.0011178
0.00112883
0.00113992
0.00115068
0.00116029
0.00116782
0.00117285
0.00117628
0.0011795
0.00118259
0.00118262
0.00117603
0.000972585
0.000970809
0.000966507
0.000958469
0.000945804
0.000930101
0.000913814
0.000898444
0.000884764
0.000873388
0.000864858
0.000859501
0.000857023
0.000857011
0.000858908
0.000862092
0.00086378
0.00082274
0.000826833
0.000833829
0.000843339
0.000851126
0.000855237
0.000855902
0.00085428
0.000851407
0.000848042
0.000844781
0.000842089
0.000840168
0.000839002
0.000838403
0.000837968
0.000834459
0.000661534
0.000667719
0.000679208
0.000696717
0.000715451
0.000731832
0.000744307
0.000753346
0.000759943
0.000764811
0.000768337
0.000770654
0.00077186
0.000772042
0.000771284
0.000769416
0.000762549
0.000493888
0.000500524
0.000513372
0.000533716
0.000557076
0.000579513
0.000598589
0.000614236
0.00062728
0.000638296
0.000647411
0.000654345
0.000658908
0.0006611
0.000661132
0.000658973
0.000649931
0.00033406
0.000339952
0.000351681
0.000370688
0.000393386
0.000416296
0.000436854
0.000454685
0.0004704
0.000484402
0.000496601
0.000506388
0.000513289
0.000517133
0.000518128
0.000516251
0.00050594
0.000202891
0.000206922
0.000215425
0.00022968
0.000247306
0.000265791
0.000283032
0.000298575
0.00031281
0.000325976
0.00033786
0.000347722
0.000354921
0.000359134
0.000360465
0.000358674
0.000347988
0.000114016
0.000115562
0.000119889
0.000127929
0.000138397
0.000149804
0.000160769
0.000170934
0.000180518
0.000189644
0.000198094
0.000205215
0.000210396
0.000213265
0.000213824
0.000211691
0.000201948
6.25117e-05
6.19443e-05
6.28862e-05
6.58659e-05
7.02607e-05
7.53145e-05
8.02857e-05
8.49714e-05
8.94895e-05
9.39006e-05
9.80569e-05
0.000101531
0.000103907
0.000104913
0.000104542
0.000102566
9.62571e-05
3.35618e-05
3.21993e-05
3.17298e-05
3.23029e-05
3.35978e-05
3.52527e-05
3.69358e-05
3.85694e-05
4.02185e-05
4.19163e-05
4.35964e-05
4.5067e-05
4.61466e-05
4.67375e-05
4.68945e-05
4.6651e-05
4.52633e-05
1.7756e-05
1.68443e-05
1.64753e-05
1.66576e-05
1.7215e-05
1.79817e-05
1.88342e-05
1.97617e-05
2.08062e-05
2.19964e-05
2.33317e-05
2.47868e-05
2.63638e-05
2.81144e-05
3.0141e-05
3.25006e-05
3.49959e-05
9.69511e-06
9.29427e-06
9.2838e-06
9.65385e-06
1.03173e-05
1.11943e-05
1.22488e-05
1.3512e-05
1.50406e-05
1.68879e-05
1.91113e-05
2.17852e-05
2.49829e-05
2.87108e-05
3.28346e-05
3.70486e-05
4.08742e-05
3.76931e-06
3.47835e-06
3.42697e-06
3.73836e-06
4.327e-06
5.15063e-06
6.21681e-06
7.62403e-06
9.521e-06
1.20553e-05
1.53595e-05
1.95194e-05
2.4471e-05
2.99065e-05
3.53221e-05
4.00717e-05
4.37169e-05
4.71707e-07
4.11689e-07
3.87361e-07
4.26093e-07
5.15951e-07
6.4976e-07
8.3927e-07
1.14103e-06
1.68546e-06
2.74331e-06
4.84245e-06
8.63967e-06
1.41797e-05
2.05974e-05
2.68522e-05
3.19213e-05
3.53739e-05
3.30545e-08
2.92306e-08