/*--------------------------------*- C++ -*----------------------------------*\
| =========                 |                                                 |
| \\      /  F ield         | OpenFOAM: The Open Source CFD Toolbox           |
|  \\    /   O peration     | Version:  2.3.x                                 |
|   \\  /    A nd           | Web:      www.OpenFOAM.org                      |
|    \\/     M anipulation  |                                                 |
\*---------------------------------------------------------------------------*/
FoamFile
{
    version     2.0;
    format      ascii;
    class       volScalarField;
    location    "0";
    object      p;
}
// * * * * * * * * * * * * * * * * * * * * * * * * * * * * * * * * * * * * * //

dimensions      [0 2 -2 0 0 0 0];

internalField   nonuniform List<scalar> 
3000
(
5.4183e-05
-8.05893e-06
3.4964e-05
0.000142502
0.000188381
0.000208657
0.000222046
0.000232275
0.000239809
0.00024561
0.000250214
0.000255304
0.000261962
0.000268395
0.000274368
0.000279111
0.000283935
5.45494e-05
-7.10878e-06
3.32047e-05
0.000139974
0.000187133
0.000208018
0.000221607
0.000231933
0.000239553
0.000245438
0.000250106
0.000255224
0.000261767
0.000268071
0.000273857
0.000278795
0.000283682
5.57512e-05
-4.21437e-06
3.22144e-05
0.000137246
0.000185719
0.000207249
0.000221093
0.000231508
0.000239191
0.000245154
0.000249889
0.000255002
0.000261395
0.000267647
0.000273586
0.00027844
0.000283327
5.84153e-05
2.45063e-06
3.36372e-05
0.000134856
0.000184442
0.000206423
0.000220516
0.000231008
0.000238754
0.00024482
0.000249632
0.000254729
0.00026098
0.000267206
0.000273133
0.000278035
0.000282913
6.23533e-05
1.32466e-05
3.89192e-05
0.000133244
0.000183489
0.000205726
0.000219901
0.000230476
0.000238286
0.000244455
0.000249361
0.000254459
0.000260591
0.000266806
0.000272846
0.000277655
0.000282505
6.74635e-05
2.64795e-05
4.74504e-05
0.000132425
0.000182808
0.000205312
0.000219399
0.000229936
0.000237821
0.000244082
0.000249062
0.000254206
0.000260265
0.000266442
0.000272463
0.000277269
0.000282101
7.43879e-05
4.13639e-05
5.79411e-05
0.000132435
0.000182137
0.000205206
0.000219116
0.000229611
0.00023741
0.000243718
0.000248856
0.000254028
0.000260041
0.000266187
0.000272195
0.000276928
0.000281742
8.34167e-05
5.81662e-05
7.02148e-05
0.000133347
0.000181412
0.000205398
0.000219237
0.000229457
0.000237388
0.000243605
0.000248566
0.000253947
0.000260035
0.000266033
0.000271957
0.000276649
0.000281452
9.5155e-05
7.69865e-05
8.46407e-05
0.000135387
0.000180483
0.000205533
0.00021975
0.000230036
0.000237405
0.000243738
0.000249042
0.000254211
0.000260112
0.00026611
0.000271905
0.000276495
0.000281297
0.000109792
9.74922e-05
0.000101447
0.000139296
0.000179521
0.000205207
0.000220157
0.000230543
0.000238685
0.000244986
0.000249337
0.000254585
0.000260802
0.000266469
0.000272054
0.000276475
0.00028134
0.000127467
0.000119208
0.000120387
0.000146054
0.00017926
0.000204287
0.000220122
0.00023106
0.000239385
0.00024613
0.000251603
0.00025623
0.000261819
0.000267183
0.000272455
0.000276589
0.000281686
0.000147741
0.000141558
0.000140751
0.000156294
0.000181042
0.000203327
0.000219316
0.000230837
0.000239988
0.000247515
0.000253674
0.000259521
0.000263849
0.000268301
0.000273079
0.000276812
0.000282407
0.000169859
0.000164149
0.000161784
0.000169894
0.000186232
0.000203806
0.000218418
0.000229789
0.000239178
0.000247378
0.000254811
0.000261821
0.000266094
0.000269675
0.000273884
0.000277256
0.000283492
0.000192432
0.000186486
0.000182892
0.000186097
0.000195522
0.000207606
0.000219307
0.000229365
0.000238035
0.000245881
0.000253218
0.000260365
0.000265944
0.000270834
0.000275183
0.000278263
0.000284642
0.000213777
0.000207739
0.000203264
0.00020333
0.000207811
0.000215047
0.000223328
0.000231317
0.000238604
0.000245393
0.000251968
0.000258647
0.000264606
0.000269772
0.000274832
0.000278848
0.000284903
0.00028793
0.00029163
0.000294919
0.000297952
0.000300666
0.00030314
0.000305372
0.000307406
0.000309256
0.000310959
0.000312522
0.000314
0.000315353
0.000316725
0.000317921
0.000319364
0.00028775
0.000291498
0.000294818
0.000297873
0.000300603
0.00030309
0.000305332
0.000307373
0.000309228
0.000310936
0.000312502
0.000313984
0.00031534
0.000316714
0.000317913
0.00031936
0.000287421
0.00029121
0.000294567
0.000297658
0.000300419
0.000302934
0.000305198
0.000307259
0.000309132
0.000310855
0.000312434
0.000313927
0.000315294
0.000316679
0.000317887
0.000319347
0.000287025
0.000290847
0.000294232
0.000297356
0.000300148
0.000302691
0.000304982
0.000307068
0.000308964
0.000310708
0.000312307
0.00031382
0.000315206
0.000316612
0.000317837
0.000319323
0.000286612
0.000290454
0.00029386
0.000297011
0.000299829
0.000302399
0.000304716
0.000306827
0.000308748
0.000310516
0.000312138
0.000313674
0.000315083
0.000316516
0.000317766
0.000319286
0.000286196
0.000290049
0.000293468
0.000296639
0.000299479
0.000302073
0.000304415
0.000306551
0.000308496
0.000310289
0.000311937
0.000313498
0.000314933
0.000316395
0.000317673
0.000319235
0.000285808
0.000289659
0.000293083
0.000296265
0.000299121
0.000301733
0.000304096
0.000306254
0.000308222
0.000310038
0.00031171
0.000313296
0.000314758
0.00031625
0.000317558
0.000319163
0.00028548
0.000289312
0.000292729
0.00029591
0.000298772
0.000301394
0.000303771
0.000305945
0.000307932
0.000309769
0.000311463
0.000313073
0.000314561
0.00031608
0.000317418
0.000319066
0.000285264
0.000289057
0.000292449
0.000295612
0.000298466
0.000301085
0.000303465
0.000305647
0.000307645
0.000309495
0.000311207
0.000312835
0.000314345
0.000315885
0.000317245
0.000318927
0.000285203
0.00028893
0.000292273
0.000295397
0.000298225
0.000300823
0.000303194
0.00030537
0.00030737
0.000309224
0.000310945
0.000312581
0.000314104
0.000315654
0.000317022
0.000318722
0.000285345
0.000288966
0.000292233
0.000295288
0.000298069
0.000300625
0.000302968
0.000305123
0.00030711
0.000308954
0.000310671
0.0003123
0.000313822
0.000315359
0.000316706
0.000318385
0.000285692
0.000289128
0.000292293
0.000295243
0.000297949
0.00030044
0.000302734
0.000304851
0.000306807
0.000308625
0.00031032
0.00031192
0.000313414
0.000314904
0.000316181
0.000317777
0.000286209
0.000289321
0.000292358
0.000295175
0.000297772
0.000300172
0.000302392
0.000304447
0.000306349
0.000308114
0.000309755
0.00031129
0.000312707
0.000314087
0.000315209
0.000316614
0.000286542
0.000289186
0.000292051
0.00029472
0.000297181
0.00029947
0.000301597
0.000303569
0.000305391
0.000307073
0.000308619
0.000310038
0.000311313
0.000312502
0.000313377
0.000314476
0.000286001
0.000288227
0.000290934
0.000293474
0.000295802
0.000297969
0.000299986
0.000301846
0.000303547
0.000305091
0.000306475
0.000307699
0.000308743
0.000309647
0.000310199
0.00031091
0.000320421
0.000322218
0.000323875
0.000325743
0.00032818
0.000331116
0.000339908
0.000345795
0.000350952
0.000353498
0.000350481
0.00034191
0.000331418
0.000307793
0.000221568
-1.49239e-05
-0.000119368
0.000320418
0.000322217
0.000323878
0.000325753
0.000328215
0.00033116
0.000339909
0.00034574
0.000350849
0.000353275
0.000350107
0.000341425
0.000330604
0.000305695
0.000217199
-1.58299e-05
-0.000117741
0.000320419
0.000322229
0.000323911
0.000325814
0.000328353
0.000331341
0.000339823
0.000345388
0.00035031
0.000352553
0.000349276
0.00034051
0.000329228
0.000302761
0.00021223
-1.42774e-05
-0.000112922
0.000320426
0.000322262
0.000323982
0.000325938
0.000328597
0.000331607
0.000339617
0.000344785
0.000349329
0.000351158
0.000347631
0.000338668
0.000326554
0.000297907
0.000205675
-9.89318e-06
-0.000103494
0.000320426
0.000322303
0.000324074
0.000326095
0.000328878
0.000331893
0.000339338
0.00034405
0.000348096
0.000349306
0.000345256
0.000335754
0.000322148
0.000290136
0.000196045
-4.90355e-06
-9.09623e-05
0.000320412
0.000322341
0.000324168
0.000326259
0.000329145
0.000332152
0.000338967
0.000343175
0.000346599
0.000347028
0.000342234
0.000331849
0.000316119
0.000279928
0.000184547
9.10694e-07
-7.64999e-05
0.000320367
0.000322363
0.000324246
0.000326402
0.000329354
0.000332327
0.000338489
0.000342159
0.000344846
0.000344312
0.000338501
0.000326824
0.000308375
0.00026768
0.000172368
9.0703e-06
-5.92333e-05
0.000320275
0.000322353
0.000324284
0.00032649
0.000329451
0.000332334
0.0003378
0.000340886
0.000342699
0.000341
0.000333877
0.00032045
0.000298702
0.000253579
0.000160444
2.00242e-05
-3.91612e-05
0.000320105
0.000322282
0.000324239
0.000326459
0.000329344
0.000332018
0.000336748
0.000339202
0.000339978
0.00033687
0.000328059
0.00031237
0.000286898
0.000238108
0.000150037
3.41208e-05
-1.63438e-05
0.000319803
0.0003221
0.000324052
0.000326218
0.000328894
0.00033116
0.000335077
0.000336813
0.000336326
0.000331519
0.000320616
0.000302232
0.000273016
0.00022223
0.000142554
5.09653e-05
8.48843e-06
0.000319263
0.000321702
0.000323573
0.00032561
0.000327929
0.000329529
0.000332483
0.000333335
0.000331281
0.000324423
0.000311063
0.000289838
0.000257646
0.000207592
0.000139394
6.9919e-05
3.4537e-05
0.000318297
0.000320907
0.00032259
0.000324299
0.000326052
0.000326836
0.000328593
0.000328186
0.000324123
0.000314851
0.000298957
0.000275428
0.00024214
0.000196166
0.000141191
8.9847e-05
6.06889e-05
0.000316558
0.000319335
0.000320692
0.000321792
0.000322699
0.000322704
0.00032305
0.000320744
0.000314242
0.000302508
0.000284706
0.00026041
0.000228777
0.000189731
0.000147617
0.000109773
8.60966e-05
0.000313687
0.000316491
0.000317359
0.000317583
0.000317388
0.000316231
0.000314513
0.000309737
0.000300789
0.000287308
0.000269136
0.000246352
0.000219001
0.000188115
0.000156753
0.000128439
0.00010965
0.000309464
0.000312009
0.000312254
0.000311409
0.00030992
0.000307381
0.000303405
0.000296517
0.000286389
0.000273077
0.000256695
0.000237411
0.000215456
0.000191739
0.000167753
0.000145479
0.000130829
0.000231095
0.000224641
0.000219918
0.000218731
0.000220562
0.000224494
0.000229835
0.00023575
0.000241611
0.000247195
0.000252496
0.000257706
0.000262796
0.000267657
0.000272386
0.000276548
0.000282331
0.000242638
0.000235916
0.00023072
0.00022839
0.000228377
0.000230205
0.000233562
0.000237837
0.000242448
0.000247109
0.000251736
0.000256401
0.000261093
0.000265723
0.000270295
0.000274526
0.000279842
0.00024956
0.00024263
0.000237049
0.000234252
0.000233501
0.000234372
0.000236681
0.000239987
0.00024381
0.000247862
0.00025201
0.000256256
0.000260576
0.000264903
0.000269202
0.000273266
0.000277989
0.000253834
0.000246682
0.000240828
0.000237843
0.000236732
0.000237053
0.000238694
0.000241341
0.000244612
0.000248234
0.000252052
0.000256015
0.000260077
0.000264176
0.000268259
0.000272187
0.000276428
0.00025668
0.00024919
0.000243125
0.000240087
0.00023878
0.000238764
0.000239966
0.000242171
0.000245073
0.000248417
0.000252026
0.000255808
0.000259695
0.00026363
0.000267553
0.00027139
0.000275195
0.00025863
0.000250678
0.000244486
0.000241483
0.000240074
0.000239844
0.00024074
0.000242627
0.000245267
0.000248419
0.00025189
0.000255548
0.00025931
0.000263123
0.000266929
0.00027073
0.000274106
0.000260033
0.000251517
0.000245281
0.000242351
0.000240894
0.000240537
0.000241223
0.000242879
0.000245334
0.000248354
0.000251736
0.000255311
0.000258985
0.00026271
0.000266435
0.000270246
0.00027318
0.000261069
0.00025192
0.000245732
0.000242873
0.000241402
0.000240982
0.00024153
0.000243027
0.000245351
0.000248284
0.000251611
0.000255134
0.000258749
0.000262407
0.000266071
0.000269916
0.000272438
0.000261855
0.000252054
0.000245986
0.000243178
0.000241706
0.000241262
0.000241727
0.000243118
0.000245356
0.000248232
0.00025153
0.000255025
0.000258603
0.000262218
0.000265835
0.000269707
0.000271924
0.000262417
0.000252039
0.000246115
0.000243328
0.000241863
0.000241416
0.000241836
0.000243164
0.000245348
0.000248191
0.000251472
0.000254954
0.000258512
0.000262098
0.00026567
0.000269549
0.000271596
0.000262754
0.000251972
0.000246171
0.000243374
0.000241914
0.000241471
0.00024187
0.000243161
0.000245312
0.000248132
0.000251403
0.000254877
0.000258423
0.000261993
0.000265543
0.000269432
0.000271416
0.000262901
0.000251922
0.000246195
0.000243375
0.000241918
0.000241479
0.000241871
0.000243146
0.00024528
0.000248087
0.000251348
0.000254813
0.000258349
0.000261906
0.00026544
0.000269342
0.000271324
0.000262934
0.000251898
0.000246202
0.000243369
0.000241911
0.000241474
0.000241865
0.000243138
0.000245268
0.000248073
0.000251333
0.000254797
0.000258331
0.000261884
0.000265411
0.000269317
0.000271311
0.000262927
0.000251886
0.000246197
0.000243359
0.0002419
0.000241463
0.000241856
0.00024313
0.000245263
0.000248071
0.000251334
0.000254801
0.000258338
0.000261894
0.000265423
0.000269327
0.000271335
0.000262911
0.000251876
0.000246186
0.000243347
0.000241888
0.000241451
0.000241844
0.000243121
0.000245257
0.000248069
0.000251335
0.000254806
0.000258345
0.000261904
0.000265437
0.000269338
0.000271354
0.000283619
0.000285901
0.000288625
0.000291159
0.000293455
0.000295573
0.000297525
0.000299302
0.000300901
0.000302319
0.000303555
0.000304604
0.000305452
0.000306132
0.000306479
0.000306969
0.000281671
0.000284115
0.000286818
0.00028931
0.000291559
0.000293615
0.000295486
0.000297162
0.000298641
0.000299917
0.000300987
0.000301846
0.000302481
0.000302911
0.000303022
0.000303172
0.000280201
0.000282769
0.00028544
0.000287896
0.000290121
0.000292144
0.000293967
0.000295579
0.000296978
0.000298159
0.000299118
0.000299849
0.000300339
0.000300594
0.000300536
0.000300387
0.00027899
0.000281725
0.000284416
0.000286878
0.000289114
0.000291136
0.000292938
0.000294514
0.000295861
0.000296978
0.00029786
0.000298502
0.000298893
0.000299029
0.00029886
0.000298509
0.00027807
0.000280973
0.000283688
0.000286164
0.00028842
0.000290448
0.00029224
0.000293792
0.000295105
0.000296179
0.000297011
0.000297595
0.000297924
0.000297988
0.000297758
0.000297288
0.000277308
0.000280379
0.000283124
0.00028563
0.000287918
0.000289962
0.000291754
0.000293295
0.000294588
0.000295636
0.000296437
0.000296987
0.000297278
0.000297298
0.000297035
0.000296485
0.000276747
0.000279957
0.000282727
0.000285268
0.000287587
0.000289645
0.000291438
0.000292971
0.00029425
0.000295279
0.000296058
0.000296584
0.000296851
0.000296844
0.00029656
0.000295931
0.000276375
0.000279672
0.000282463
0.000285041
0.000287386
0.000289456
0.000291249
0.000292775
0.000294043
0.000295057
0.000295821
0.00029633
0.000296579
0.000296552
0.00029625
0.000295521
0.000276173
0.0002795
0.000282315
0.000284921
0.000287278
0.000289349
0.000291137
0.000292653
0.000293909
0.000294912
0.000295665
0.000296167
0.000296407
0.000296363
0.000296053
0.000295239
0.000276036
0.000279348
0.000282193
0.000284823
0.000287188
0.000289262
0.000291049
0.000292564
0.000293818
0.000294819
0.000295568
0.000296064
0.000296301
0.000296256
0.000295957
0.000295097
0.000275938
0.000279227
0.000282101
0.000284745
0.000287117
0.000289197
0.00029099
0.000292509
0.000293767
0.000294772
0.000295526
0.000296027
0.00029627
0.000296231
0.000295946
0.000295063
0.000275846
0.000279125
0.000282039
0.000284703
0.000287088
0.000289177
0.000290977
0.000292501
0.000293763
0.000294772
0.000295529
0.000296034
0.000296281
0.000296245
0.00029597
0.000295075
0.000275807
0.000279084
0.000282016
0.000284686
0.000287077
0.000289173
0.000290978
0.000292506
0.000293771
0.000294782
0.000295542
0.000296048
0.000296298
0.000296265
0.000295996
0.000295095
0.000275824
0.000279098
0.00028203
0.000284698
0.000287087
0.000289182
0.000290986
0.000292513
0.000293777
0.000294787
0.000295547
0.000296054
0.000296304
0.000296273
0.000296007
0.000295106
0.000275849
0.000279123
0.000282052
0.000284717
0.000287102
0.000289193
0.000290994
0.000292519
0.000293781
0.00029479
0.000295549
0.000296056
0.000296307
0.000296276
0.000296013
0.000295113
0.000305199
0.000306835
0.000306378
0.000304503
0.000301665
0.000297539
0.000291761
0.000284014
0.000274228
0.000262369
0.000248413
0.000232389
0.000214546
0.000195733
0.000177159
0.000159619
0.000147612
0.000301354
0.000301756
0.000300688
0.000298293
0.000294888
0.000290264
0.000284175
0.000276479
0.000267175
0.000256257
0.000243743
0.0002297
0.000214396
0.000198555
0.000183095
0.00016861
0.000157938
0.000298752
0.000298306
0.000296736
0.000294015
0.000290316
0.000285499
0.000279403
0.000271947
0.00026314
0.000252982
0.000241495
0.000228769
0.000215076
0.000201008
0.000187289
0.000174407
0.000164053
0.000297078
0.00029603
0.000294093
0.000291191
0.000287373
0.000282529
0.000276546
0.000269362
0.000260963
0.000251338
0.00024051
0.000228587
0.000215853
0.00020282
0.000190094
0.00017813
0.000167665
0.000296089
0.000294599
0.000292413
0.000289425
0.000285571
0.000280758
0.000274903
0.000267949
0.000259858
0.000250601
0.000240198
0.000228768
0.000216621
0.000204218
0.000192105
0.000180726
0.000169892
0.00029557
0.000293701
0.00029135
0.000288336
0.00028448
0.000279714
0.000273974
0.000267203
0.000259333
0.000250323
0.000240182
0.000229044
0.00021725
0.000205225
0.000193491
0.000182514
0.000171169
0.000295357
0.000293139
0.000290682
0.000287667
0.000283822
0.000279099
0.000273449
0.000266809
0.00025909
0.000250238
0.000240258
0.000229295
0.00021772
0.000205929
0.000194429
0.000183733
0.00017187
0.000295275
0.000292789
0.000290251
0.000287234
0.000283404
0.000278723
0.000273145
0.000266602
0.000258985
0.000250235
0.000240357
0.000229504
0.000218068
0.00020642
0.000195052
0.000184536
0.000172248
0.000295224
0.000292609
0.00029001
0.00028699
0.000283179
0.000278537
0.000273014
0.000266537
0.000258986
0.0002503
0.000240485
0.000229698
0.000218341
0.000206769
0.000195465
0.000185053
0.000172468
0.000295208
0.000292565
0.000289927
0.000286905
0.000283113
0.000278502
0.000273015
0.000266578
0.000259066
0.000250417
0.000240634
0.000229878
0.000218557
0.000207017
0.000195736
0.000185375
0.000172596
0.000295232
0.000292598
0.000289938
0.000286917
0.000283139
0.000278548
0.000273083
0.000266667
0.000259174
0.000250539
0.000240768
0.000230022
0.00021871
0.000207177
0.000195896
0.000185549
0.00017267
0.000295273
0.000292658
0.000289986
0.000286965
0.000283197
0.000278619
0.000273164
0.000266758
0.00025927
0.000250639
0.000240867
0.000230118
0.000218804
0.000207266
0.000195973
0.000185623
0.000172712
0.000295302
0.000292712
0.000290031
0.000287009
0.000283246
0.000278672
0.000273221
0.000266816
0.000259329
0.000250695
0.000240919
0.000230165
0.000218845
0.000207302
0.000195999
0.000185642
0.000172731
0.000295313
0.00029274
0.000290055
0.000287034
0.000283274
0.000278703
0.000273254
0.00026685
0.000259362
0.000250727
0.000240949
0.000230191
0.000218865
0.000207316
0.000196007
0.000185645
0.000172736
0.000295321
0.000292754
0.00029007
0.000287051
0.000283295
0.000278727
0.000273279
0.000266876
0.000259389
0.000250753
0.000240973
0.000230211
0.00021888
0.000207326
0.000196011
0.000185645
0.000172733
-3.93147e-05
-8.65433e-05
-4.92301e-05
5.28989e-05
9.54271e-05
0.000114298
0.000127307
0.00013736
0.000145013
0.000150704
0.000155352
0.000160384
0.000167188
0.000173948
0.000180252
0.000185443
0.000190486
-3.90949e-05
-8.58716e-05
-5.09022e-05
5.05219e-05
9.42717e-05
0.000113695
0.000126879
0.000137018
0.000144755
0.000150531
0.000155246
0.00016032
0.000167023
0.000173642
0.000179831
0.000185084
0.000190189
-3.80502e-05
-8.35774e-05
-5.19461e-05
4.79779e-05
9.29606e-05
0.000112973
0.000126378
0.000136589
0.000144385
0.000150238
0.000155028
0.000160119
0.00016667
0.000173226
0.000179475
0.000184748
0.000189835
-3.54246e-05
-7.7894e-05
-5.08316e-05
4.57923e-05
9.17632e-05
0.00011219
0.000125813
0.000136077
0.000143932
0.000149887
0.000154772
0.000159869
0.000166265
0.00017277
0.000179052
0.000184345
0.000189412
-3.12418e-05
-6.83375e-05
-4.61674e-05
4.42866e-05
9.08577e-05
0.000111508
0.000125198
0.000135528
0.000143441
0.000149515
0.000154505
0.000159609
0.000165879
0.000172359
0.000178709
0.000183992
0.00018901
-2.57739e-05
-5.63973e-05
-3.85061e-05
4.33886e-05
9.02261e-05
0.0001111
0.000124675
0.000134949
0.000142958
0.000149129
0.000154206
0.000159373
0.000165549
0.000171987
0.000178345
0.000183609
0.000188603
-1.86156e-05
-4.26805e-05
-2.89318e-05
4.31733e-05
8.96354e-05
0.000110995
0.000124371
0.000134577
0.000142482
0.000148744
0.000154013
0.000159214
0.000165317
0.000171724
0.000178053
0.000183276
0.000188242
-9.52454e-06
-2.6958e-05
-1.75175e-05
4.37701e-05
8.90326e-05
0.000111234
0.000124453
0.000134386
0.000142423
0.000148564
0.000153693
0.000159136
0.000165287
0.000171569
0.000177823
0.000182991
0.000187942
2.08668e-06
-9.25072e-06
-3.87162e-06
4.5452e-05
8.82483e-05
0.000111527
0.000125014
0.000134892
0.000142339
0.000148691
0.000154084
0.000159349
0.000165364
0.000171621
0.000177758
0.000182821
0.000187779
1.64649e-05
9.9966e-06
1.22243e-05
4.89584e-05
8.74177e-05
0.000111461
0.000125558
0.000135504
0.000143635
0.000149746
0.000154317
0.000159723
0.00016602
0.000171993
0.000177917
0.000182781
0.000187815
3.3807e-05
3.02456e-05
3.04908e-05
5.52668e-05
8.72095e-05
0.000110867
0.000125798
0.000136206
0.000144365
0.00015106
0.000156603
0.000161217
0.000167052
0.000172725
0.000178337
0.000182877
0.000188167
5.37185e-05
5.09745e-05
5.01646e-05
6.5034e-05
8.89103e-05
0.000110179
0.000125356
0.000136348
0.00014525
0.000152625
0.000158747
0.000164669
0.000169196
0.000173939
0.000179035
0.000183109
0.000188919
7.54557e-05
7.19733e-05
7.04499e-05
7.81649e-05
9.38962e-05
0.000110783
0.000124769
0.000135675
0.000144802
0.00015288
0.000160335
0.000167376
0.000171718
0.000175502
0.000179967
0.000183598
0.000190079
9.76389e-05
9.29569e-05
9.07527e-05
9.38864e-05
0.000102903
0.000114557
0.000125845
0.000135553
0.000143987
0.000151711
0.000159034
0.000166272
0.000171976
0.000176983
0.000181491
0.000184754
0.000191397
0.000118662
0.00011329
0.000110405
0.000110639
0.00011487
0.000121863
0.000129918
0.000137699
0.000144826
0.000151524
0.000158082
0.00016482
0.000170873
0.000176183
0.000181418
0.00018557
0.000191838
0.000194812
0.00019871
0.000202232
0.000205431
0.000208307
0.00021091
0.000213257
0.000215387
0.000217322
0.000219098
0.000220726
0.000222262
0.000223669
0.000225091
0.000226336
0.000227825
0.000194601
0.000198555
0.000202114
0.00020534
0.000208235
0.000210853
0.00021321
0.000215349
0.00021729
0.000219072
0.000220704
0.000222244
0.000223654
0.000225079
0.000226327
0.000227819
0.000194262
0.000198252
0.000201845
0.000205108
0.000208035
0.000210681
0.000213064
0.000215224
0.000217184
0.000218982
0.000220629
0.000222182
0.000223604
0.000225041
0.000226299
0.000227805
0.000193855
0.000197876
0.000201497
0.000204791
0.000207749
0.000210425
0.000212835
0.000215021
0.000217005
0.000218827
0.000220494
0.000222069
0.000223511
0.00022497
0.000226247
0.000227781
0.000193438
0.000197474
0.000201113
0.000204433
0.000207417
0.00021012
0.000212557
0.00021477
0.000216779
0.000218625
0.000220318
0.000221917
0.000223383
0.00022487
0.000226173
0.000227743
0.000193016
0.000197058
0.000200709
0.000204047
0.000207053
0.000209781
0.000212243
0.000214481
0.000216517
0.000218389
0.000220108
0.000221734
0.000223228
0.000224745
0.000226078
0.000227691
0.000192622
0.000196658
0.00020031
0.000203659
0.00020668
0.000209426
0.00021191
0.000214171
0.00021623
0.000218127
0.000219872
0.000221524
0.000223047
0.000224596
0.00022596
0.000227618
0.000192282
0.000196299
0.000199942
0.000203289
0.000206315
0.000209071
0.000211569
0.000213848
0.000215927
0.000217846
0.000219615
0.000221292
0.000222843
0.000224421
0.000225816
0.000227517
0.000192055
0.000196033
0.000199646
0.000202977
0.000205992
0.000208746
0.000211248
0.000213534
0.000215627
0.00021756
0.000219347
0.000221044
0.000222618
0.000224219
0.000225639
0.000227376
0.00019198
0.000195898
0.000199456
0.000202749
0.000205737
0.00020847
0.000210962
0.000213244
0.000215338
0.000217277
0.000219074
0.00022078
0.000222369
0.000223982
0.000225411
0.000227166
0.000192114
0.000195936
0.000199407
0.000202632
0.000205569
0.00020826
0.000210723
0.000212985
0.000215066
0.000216995
0.000218789
0.00022049
0.000222078
0.000223679
0.000225088
0.000226824
0.000192473
0.000196117
0.000199472
0.000202591
0.000205448
0.000208072
0.000210484
0.000212705
0.000214755
0.000216658
0.000218429
0.000220101
0.000221662
0.000223216
0.000224555
0.000226209
0.000193037
0.000196351
0.000199563
0.00020254
0.00020528
0.000207807
0.00021014
0.000212296
0.000214289
0.000216138
0.000217854
0.000219459
0.000220942
0.000222384
0.000223566
0.000225029
0.000193476
0.000196289
0.000199308
0.000202118
0.000204708
0.000207112
0.000209344
0.000211409
0.000213317
0.000215076
0.000216694
0.000218178
0.000219514
0.000220761
0.00022169
0.000222841
0.000193035
0.000195387
0.000198222
0.000200882
0.000203319
0.000205586
0.000207693
0.000209634
0.000211409
0.000213018
0.00021446
0.000215736
0.000216825
0.00021777
0.000218354
0.000219102
0.000228933
0.000230778
0.000232479
0.000234393
0.000236866
0.000239827
0.000248541
0.000254391
0.000259487
0.000262058
0.000259091
0.000251337
0.000240914
0.00022052
0.000137215
-3.53768e-05
-0.000119615
0.00022893
0.000230777
0.000232483
0.000234405
0.000236904
0.000239876
0.000248543
0.000254335
0.000259383
0.000261836
0.000258735
0.000250874
0.000240175
0.000218573
0.000133779
-3.5967e-05
-0.000118261
0.000228931
0.000230791
0.000232518
0.00023447
0.000237048
0.000240063
0.000248461
0.000253989
0.000258852
0.000261127
0.000257934
0.00025
0.00023891
0.000215898
0.000129973
-3.45567e-05
-0.000115957
0.000228939
0.000230825
0.000232592
0.000234598
0.000237296
0.000240333
0.00024827
0.00025341
0.000257906
0.00025978
0.000256365
0.000248261
0.000236463
0.000211585
0.000125137
-3.04661e-05
-0.000110041
0.00022894
0.000230868
0.000232686
0.000234757
0.000237578
0.00024062
0.000248008
0.000252705
0.00025672
0.000258003
0.000254122
0.000245543
0.000232478
0.000204799
0.000118007
-2.50597e-05
-0.000100882
0.000228926
0.000230907
0.000232782
0.000234923
0.000237847
0.000240882
0.000247656
0.000251862
0.000255279
0.00025582
0.000251276
0.000241917
0.000227063
0.000195925
0.000109467
-1.91577e-05
-8.97184e-05
0.000228882
0.00023093
0.000232861
0.000235068
0.000238058
0.000241062
0.000247196
0.000250877
0.000253584
0.000253216
0.00024777
0.000237264
0.000220136
0.000185282
0.000100467
-1.23829e-05
-7.65737e-05
0.000228791
0.000230922
0.000232902
0.00023516
0.00023816
0.000241079
0.00024653
0.000249642
0.00025151
0.000250048
0.000243439
0.000231379
0.000211518
0.000173037
9.16938e-05
-4.63369e-06
-6.15771e-05
0.000228622
0.000230851
0.00023286
0.000235134
0.000238061
0.000240784
0.00024551
0.000248004
0.000248889
0.000246118
0.000238016
0.000223951
0.000201026
0.000159563
8.39444e-05
4.00818e-06
-4.51901e-05
0.000228322
0.000230672
0.000232677
0.000234901
0.000237628
0.000239965
0.000243896
0.000245699
0.000245397
0.000241061
0.000231108
0.000214654
0.000188668
0.000145558
7.79368e-05
1.30649e-05
-2.84052e-05
0.000227785
0.000230278
0.00023221
0.000234303
0.000236677
0.000238385
0.000241392
0.000242358
0.000240602
0.000234393
0.000222256
0.000203262
0.000174812
0.000132111
7.41843e-05
2.19607e-05
-1.25888e-05
0.000226819
0.000229488
0.000231238
0.00023304
0.000234885
0.00023576
0.000237595
0.000237406
0.000233801
0.000225374
0.000210923
0.000189769
0.000160237
0.00012031
7.24908e-05
2.99185e-05
7.83204e-07
0.000225062
0.000227915
0.000229341
0.000230534
0.00023155
0.000231706
0.000232238
0.000230256
0.000224332
0.000213533
0.000197154
0.000174955
0.000146258
0.000110917
7.20661e-05
3.63194e-05
1.07676e-05
0.000222113
0.000225022
0.00022596
0.000226286
0.000226221
0.00022523
0.000223742
0.000219318
0.000210896
0.000198139
0.000180916
0.0001593
0.00013319
0.00010307
7.12481e-05
4.03496e-05
1.70008e-05
0.000217661
0.000220322
0.000220611
0.000219818
0.000218399
0.000215943
0.000212063
0.000205259
0.000195197
0.000181906
0.000165439
0.000145795
0.000122878
9.69602e-05
6.95896e-05
4.19544e-05
2.00917e-05
0.000135593
0.000129785
0.000126668
0.000125726
0.000127394
0.000131198
0.000136433
0.000142242
0.000148016
0.000153548
0.000158835
0.000164073
0.000169229
0.000174187
0.000179037
0.000183333
0.000189301
0.000147096
0.000140995
0.000137266
0.000135163
0.000135036
0.000136803
0.000140117
0.00014434
0.000148905
0.00015354
0.000158167
0.000162862
0.000167612
0.000172326
0.000177003
0.000181351
0.000186807
0.00015417
0.000147713
0.000143477
0.000140892
0.000140057
0.000140905
0.000143206
0.000146492
0.000150296
0.000154341
0.000158502
0.000162781
0.000167155
0.000171554
0.000175941
0.000180104
0.000184935
0.000158604
0.000151791
0.000147193
0.000144404
0.000143224
0.000143544
0.000145197
0.000147843
0.000151111
0.000154739
0.000158577
0.000162575
0.000166688
0.000170852
0.000175013
0.000179027
0.000183358
0.000161581
0.000154338
0.00014946
0.000146595
0.000145231
0.000145228
0.000146455
0.00014867
0.00015158
0.000154938
0.000158572
0.00016239
0.000166325
0.000170321
0.000174314
0.000178229
0.000182112
0.00016361
0.000155887
0.000150812
0.000147951
0.000146496
0.00014629
0.000147219
0.000149124
0.00015178
0.000154951
0.00015845
0.000162144
0.000165952
0.000169822
0.000173693
0.000177566
0.000181011
0.000165014
0.000156824
0.000151611
0.000148786
0.000147297
0.000146973
0.000147695
0.000149375
0.00015185
0.000154894
0.000158305
0.000161917
0.000165636
0.000169413
0.000173199
0.000177079
0.000180074
0.000165953
0.000157377
0.00015207
0.000149279
0.000147791
0.000147409
0.000147997
0.000149521
0.00015187
0.000154828
0.000158186
0.000161746
0.000165404
0.000169113
0.000172835
0.000176746
0.000179324
0.000166567
0.000157701
0.000152334
0.000149562
0.000148087
0.000147684
0.00014819
0.000149612
0.000151876
0.00015478
0.000158109
0.000161641
0.000165262
0.000168926
0.000172597
0.000176535
0.000178804
0.000166937
0.00015788
0.000152471
0.000149697
0.00014824
0.000147835
0.000148297
0.000149657
0.000151869
0.00015474
0.000158054
0.000161572
0.000165172
0.000168806
0.000172431
0.000176374
0.000178473
0.00016712
0.000157967
0.000152533
0.000149735
0.000148288
0.000147888
0.00014833
0.000149654
0.000151833
0.000154683
0.000157986
0.000161496
0.000165084
0.000168701
0.000172303
0.000176255
0.000178291
0.000167182
0.000158004
0.000152557
0.000149733
0.000148291
0.000147895
0.000148329
0.000149638