/*--------------------------------*- C++ -*----------------------------------*\
| =========                 |                                                 |
| \\      /  F ield         | OpenFOAM: The Open Source CFD Toolbox           |
|  \\    /   O peration     | Version:  2.3.x                                 |
|   \\  /    A nd           | Web:      www.OpenFOAM.org                      |
|    \\/     M anipulation  |                                                 |
\*---------------------------------------------------------------------------*/
FoamFile
{
    version     2.0;
    format      ascii;
    class       volSymmTensorField;
    location    "0";
    object      Tau;
}
// * * * * * * * * * * * * * * * * * * * * * * * * * * * * * * * * * * * * * //

dimensions      [0 2 -2 0 0 0 0];

internalField   nonuniform List<symmTensor> 
3000
(
(1.01803e-07 -1.55107e-09 4.65278e-31 1.01979e-07 3.95797e-32 1.01884e-07)
(6.6408e-08 -6.57441e-10 -3.521e-31 6.72467e-08 -2.33317e-32 6.68218e-08)
(4.0875e-08 -2.96078e-12 -6.3851e-27 4.08797e-08 -6.23623e-27 4.08641e-08)
(9.53161e-08 1.88989e-10 -5.33197e-27 9.35841e-08 5.5239e-26 9.44054e-08)
(2.12565e-07 5.14107e-10 -5.63734e-25 2.08141e-07 -7.07105e-25 2.10278e-07)
(2.5248e-07 7.85182e-10 1.01878e-24 2.4665e-07 1.38474e-24 2.49503e-07)
(2.41609e-07 8.73105e-10 2.4673e-25 2.35485e-07 3.07969e-25 2.38497e-07)
(2.4359e-07 1.13436e-09 2.51529e-26 2.36924e-07 -6.10175e-27 2.4021e-07)
(2.96677e-07 2.34661e-09 5.42345e-25 2.87891e-07 1.06805e-24 2.92232e-07)
(4.17999e-07 6.13903e-09 -1.48928e-24 4.05459e-07 -1.28385e-24 4.11667e-07)
(6.2072e-07 1.56616e-08 -2.47437e-24 6.06618e-07 -1.40337e-23 6.13615e-07)
(9.58084e-07 3.80579e-08 1.23612e-24 9.54689e-07 1.94579e-24 9.56429e-07)
(1.56362e-06 1.02439e-07 -4.89122e-25 1.56951e-06 -2.53951e-27 1.56641e-06)
(2.38916e-06 2.60073e-07 -7.19173e-28 2.43797e-06 -7.78136e-25 2.41164e-06)
(3.44254e-06 -1.45639e-07 7.86193e-26 3.85113e-06 -6.71964e-27 3.62407e-06)
(2.97464e-06 -5.80211e-07 -1.24572e-26 3.06755e-06 1.1576e-24 3.0167e-06)
(2.45963e-06 -3.61363e-07 -8.57534e-27 2.4848e-06 -3.82623e-25 2.47081e-06)
(1.85871e-06 -1.12639e-07 -2.32481e-31 1.86523e-06 -7.50737e-30 1.862e-06)
(1.18072e-06 -5.04585e-08 -1.81875e-25 1.23499e-06 -4.72359e-25 1.20848e-06)
(6.89018e-07 -8.50703e-09 1.00871e-24 7.11212e-07 -8.2525e-26 7.00871e-07)
(1.55455e-06 -7.62235e-10 1.12617e-23 1.50577e-06 1.04547e-23 1.53209e-06)
(3.07647e-06 2.9538e-08 1.52968e-23 2.78718e-06 4.67753e-23 2.94075e-06)
(3.32547e-06 6.24846e-08 5.72264e-23 2.81428e-06 4.34947e-23 3.08016e-06)
(3.10667e-06 7.31779e-08 -1.05843e-22 2.51976e-06 -4.87242e-23 2.82136e-06)
(3.01955e-06 1.02151e-07 -2.00779e-24 2.37266e-06 2.56309e-25 2.70302e-06)
(3.2649e-06 2.0171e-07 -1.56897e-22 2.50023e-06 -1.88273e-22 2.88908e-06)
(3.71324e-06 4.07429e-07 3.01668e-22 2.89715e-06 5.54932e-22 3.31077e-06)
(4.19212e-06 6.76779e-07 9.35756e-23 3.62964e-06 8.6908e-22 3.91406e-06)
(4.66481e-06 8.4023e-07 5.03712e-23 4.7397e-06 -1.60531e-22 4.69953e-06)
(5.28365e-06 7.41674e-07 4.4809e-24 5.72064e-06 -8.59959e-25 5.49789e-06)
(5.44559e-06 2.77963e-07 -2.49476e-25 6.26735e-06 1.42606e-24 5.86577e-06)
(5.16893e-06 -5.72332e-07 1.33634e-24 6.3873e-06 6.37609e-24 5.82229e-06)
(5.58858e-06 -1.16938e-06 -6.82522e-25 6.36254e-06 -2.97576e-24 5.99249e-06)
(5.84729e-06 -1.5493e-06 2.75459e-25 6.3856e-06 6.15772e-24 6.12135e-06)
(7.38003e-06 -1.22173e-06 -7.02709e-25 7.3709e-06 7.44068e-25 7.37662e-06)
(4.78124e-06 -6.198e-07 -4.42377e-23 5.32399e-06 1.32613e-23 5.06723e-06)
(2.79838e-06 -1.69115e-07 -4.51503e-24 3.24767e-06 6.58259e-24 3.03016e-06)
(5.25814e-06 -2.04853e-07 -1.6039e-22 6.08972e-06 -2.09173e-22 5.66465e-06)
(7.12811e-06 2.40747e-08 1.08404e-21 7.41875e-06 1.04033e-21 7.29057e-06)
(6.74362e-06 1.2515e-07 -1.14527e-21 6.22963e-06 -1.59503e-21 6.49566e-06)
(6.16645e-06 1.35442e-07 1.6767e-21 5.18603e-06 1.47119e-21 5.67929e-06)
(5.78678e-06 2.19417e-07 5.82045e-24 4.60949e-06 -9.66371e-25 5.19994e-06)
(5.71799e-06 3.86741e-07 1.41572e-21 4.55078e-06 1.37168e-21 5.13616e-06)
(5.87224e-06 5.94157e-07 -9.02305e-22 4.95923e-06 -1.46411e-21 5.4182e-06)
(6.15564e-06 7.34668e-07 4.39093e-22 5.8506e-06 1.35067e-21 6.00685e-06)
(6.5176e-06 5.68594e-07 -1.05538e-22 7.16158e-06 1.26092e-22 6.84462e-06)
(6.92255e-06 1.22884e-07 4.59088e-25 8.30886e-06 6.27833e-24 7.6226e-06)
(6.83668e-06 -3.92203e-07 1.27256e-24 8.74557e-06 1.59284e-23 7.80529e-06)
(6.39379e-06 -1.06688e-06 -1.08844e-24 8.58163e-06 -1.22636e-24 7.49312e-06)
(6.94776e-06 -1.53683e-06 1.00018e-24 8.61345e-06 -9.23991e-24 7.79359e-06)
(7.39059e-06 -1.89315e-06 -2.64253e-24 8.78132e-06 4.65807e-24 8.0947e-06)
(1.33496e-05 -3.00763e-06 -5.88869e-23 1.30697e-05 -3.9389e-25 1.31675e-05)
(9.57363e-06 -2.20681e-06 2.41311e-22 1.09238e-05 -1.12738e-23 1.02621e-05)
(6.13333e-06 -1.19174e-06 1.74286e-22 8.72755e-06 -1.29385e-22 7.46157e-06)
(7.39207e-06 -1.9207e-06 2.26396e-22 1.52322e-05 2.71446e-22 1.12605e-05)
(8.70618e-06 -9.72478e-07 -1.27352e-21 1.36296e-05 -1.55662e-21 1.11655e-05)
(8.13892e-06 -3.20466e-07 -1.57423e-22 1.02892e-05 9.85256e-24 9.22683e-06)
(7.4466e-06 -1.83933e-07 -3.80935e-21 8.21694e-06 -4.29056e-21 7.82914e-06)
(6.9481e-06 8.33681e-09 -8.57321e-22 7.02028e-06 -9.23765e-22 6.98166e-06)
(6.76373e-06 2.20676e-07 -3.6478e-21 6.61613e-06 -4.21178e-21 6.68932e-06)
(6.87979e-06 3.62004e-07 3.70299e-22 6.87292e-06 -4.66564e-23 6.87735e-06)
(7.2163e-06 3.41194e-07 -4.39044e-22 7.74798e-06 -9.17638e-22 7.48692e-06)
(7.67285e-06 -8.7789e-08 1.36016e-22 9.1263e-06 -1.61185e-23 8.40764e-06)
(8.01842e-06 -6.86964e-07 2.10968e-24 1.04758e-05 -5.555e-24 9.2506e-06)
(7.9223e-06 -1.15378e-06 -1.09982e-24 1.09368e-05 -2.94104e-23 9.43145e-06)
(7.5494e-06 -1.70584e-06 -7.13284e-25 1.06661e-05 -1.87271e-23 9.10006e-06)
(8.07215e-06 -2.07847e-06 -1.13553e-25 1.0679e-05 9.05476e-24 9.37817e-06)
(8.52429e-06 -2.35322e-06 2.93687e-24 1.08522e-05 -2.03524e-23 9.6877e-06)
(1.77673e-05 -2.93081e-06 1.78694e-22 1.64767e-05 -1.6969e-23 1.70045e-05)
(1.4294e-05 -3.48023e-06 -2.70694e-23 1.4255e-05 -8.52502e-23 1.4222e-05)
(9.42589e-06 -3.00845e-06 2.80865e-22 1.36552e-05 3.33727e-23 1.15593e-05)
(9.18175e-06 -3.93976e-06 -5.87796e-22 2.09593e-05 7.45662e-25 1.49788e-05)
(9.59716e-06 -3.17014e-06 -1.29383e-22 2.0188e-05 3.00916e-24 1.48745e-05)
(9.04636e-06 -1.4697e-06 3.93381e-24 1.48596e-05 6.79683e-24 1.19815e-05)
(8.23165e-06 -8.69811e-07 3.04336e-22 1.1603e-05 7.20631e-22 9.9212e-06)
(7.65881e-06 -4.56162e-07 1.14201e-21 9.645e-06 2.22105e-21 8.64994e-06)
(7.45273e-06 -1.41691e-07 3.46477e-21 8.78246e-06 4.1926e-21 8.11583e-06)
(7.62089e-06 -3.09587e-08 -1.58407e-22 8.82526e-06 4.35719e-23 8.22146e-06)
(8.07189e-06 -1.96293e-07 5.73346e-22 9.66492e-06 1.34289e-21 8.87245e-06)
(8.68774e-06 -8.81114e-07 -1.73324e-22 1.10981e-05 1.45687e-23 9.89642e-06)
(9.04364e-06 -1.64513e-06 -4.18168e-24 1.26245e-05 -6.63415e-24 1.08294e-05)
(9.00719e-06 -2.09624e-06 9.18729e-25 1.30999e-05 3.66381e-23 1.10519e-05)
(8.76014e-06 -2.51392e-06 6.71497e-24 1.27917e-05 -5.89266e-24 1.07706e-05)
(9.18595e-06 -2.78667e-06 -1.40928e-25 1.2747e-05 7.34283e-24 1.09704e-05)
(9.59192e-06 -2.99009e-06 -1.19413e-24 1.28773e-05 2.8671e-24 1.12287e-05)
(2.15205e-05 -2.87404e-07 6.78923e-24 1.86293e-05 1.48595e-23 1.99302e-05)
(1.99932e-05 -3.32166e-06 2.03539e-21 1.48017e-05 -3.40966e-22 1.73616e-05)
(1.34556e-05 -5.17254e-06 -1.53199e-21 1.60955e-05 6.68463e-22 1.4824e-05)
(1.14119e-05 -5.73946e-06 -5.49725e-23 2.29613e-05 -9.67529e-22 1.70743e-05)
(1.10162e-05 -5.81976e-06 6.53861e-22 2.55814e-05 6.7384e-22 1.82589e-05)
(1.01426e-05 -3.60129e-06 -2.52198e-22 2.02177e-05 1.5159e-23 1.52143e-05)
(9.08198e-06 -2.1345e-06 9.659e-22 1.57144e-05 1.0034e-21 1.24174e-05)
(8.3817e-06 -1.28853e-06 2.74983e-21 1.2809e-05 1.67891e-21 1.05931e-05)
(8.13205e-06 -7.77031e-07 -1.72309e-21 1.13359e-05 -1.7227e-21 9.72707e-06)
(8.34269e-06 -6.46757e-07 7.44227e-24 1.10789e-05 -1.1759e-23 9.70388e-06)
(8.91535e-06 -9.53141e-07 -2.36624e-22 1.18419e-05 -1.04502e-21 1.0384e-05)
(9.74742e-06 -1.89656e-06 -7.59673e-24 1.32687e-05 -8.6675e-23 1.15074e-05)
(1.01648e-05 -2.82009e-06 1.16677e-23 1.48864e-05 -1.96526e-23 1.25197e-05)
(1.0226e-05 -3.2421e-06 -1.15512e-24 1.53423e-05 1.16318e-22 1.27851e-05)
(1.01076e-05 -3.52726e-06 -1.04123e-23 1.5046e-05 -8.01169e-24 1.25702e-05)
(1.03998e-05 -3.68424e-06 -1.02927e-24 1.49124e-05 2.16218e-23 1.26653e-05)
(1.07357e-05 -3.81478e-06 2.83355e-24 1.49593e-05 1.28373e-23 1.28395e-05)
(2.4638e-05 3.05899e-06 9.82995e-24 2.03737e-05 -1.64039e-25 2.2352e-05)
(2.5888e-05 -1.82775e-06 -3.0021e-21 1.42254e-05 5.66201e-22 2.00696e-05)
(1.86432e-05 -6.97272e-06 -7.4814e-23 1.63428e-05 -1.15315e-22 1.7652e-05)
(1.41947e-05 -7.49993e-06 6.00349e-22 2.31318e-05 5.68618e-22 1.85527e-05)
(1.3188e-05 -8.08765e-06 -1.64843e-21 2.8084e-05 -5.63825e-22 2.05576e-05)
(1.20131e-05 -6.44342e-06 6.8731e-22 2.55315e-05 8.50483e-22 1.88013e-05)
(1.04034e-05 -4.32526e-06 1.41964e-21 2.07525e-05 1.4775e-21 1.56123e-05)
(9.37129e-06 -2.79368e-06 -2.63045e-21 1.68422e-05 -2.85218e-21 1.31236e-05)
(9.00283e-06 -1.90042e-06 -3.59689e-22 1.45541e-05 -6.30019e-22 1.17724e-05)
(9.20261e-06 -1.63074e-06 2.72194e-22 1.38523e-05 7.03076e-22 1.15134e-05)
(9.87205e-06 -2.03769e-06 -1.33373e-23 1.44583e-05 8.59303e-25 1.21719e-05)
(1.09701e-05 -3.21429e-06 -1.16859e-23 1.57737e-05 6.97875e-23 1.33602e-05)
(1.14992e-05 -4.23676e-06 4.30689e-23 1.73202e-05 1.21156e-22 1.4406e-05)
(1.16817e-05 -4.60268e-06 -8.44465e-24 1.77004e-05 6.2891e-24 1.46934e-05)
(1.16599e-05 -4.77674e-06 -1.05239e-23 1.7434e-05 -5.48266e-23 1.45356e-05)
(1.1801e-05 -4.80125e-06 -5.5494e-24 1.71995e-05 9.98155e-24 1.45158e-05)
(1.20596e-05 -4.85586e-06 -1.23726e-23 1.71357e-05 2.65958e-25 1.45851e-05)
(2.7099e-05 6.00467e-06 -1.22227e-23 2.18226e-05 4.46801e-25 2.43126e-05)
(3.07339e-05 1.56697e-07 -5.20811e-24 1.39639e-05 -3.44494e-23 2.23552e-05)
(2.42732e-05 -7.78001e-06 -6.26456e-24 1.55404e-05 2.82224e-24 2.01684e-05)
(1.7791e-05 -9.05902e-06 -2.14219e-22 2.23669e-05 2.66399e-22 1.9992e-05)
(1.58391e-05 -9.6004e-06 2.45901e-21 2.77963e-05 -1.16681e-21 2.17063e-05)
(1.46337e-05 -9.07154e-06 -1.22827e-21 2.87272e-05 -7.98324e-22 2.16772e-05)
(1.27669e-05 -7.21855e-06 -1.25586e-21 2.58239e-05 -1.24775e-21 1.93328e-05)
(1.11485e-05 -5.2517e-06 -1.9609e-21 2.17631e-05 -1.99424e-21 1.64867e-05)
(1.03728e-05 -3.86885e-06 8.83384e-22 1.86427e-05 1.12538e-21 1.45267e-05)
(1.0428e-05 -3.23923e-06 8.44967e-23 1.73023e-05 -6.03389e-22 1.38604e-05)
(1.11044e-05 -3.59789e-06 -2.72817e-22 1.76112e-05 3.0244e-23 1.43765e-05)
(1.24878e-05 -4.89392e-06 5.71668e-23 1.86274e-05 1.13649e-22 1.55358e-05)
(1.31582e-05 -5.87471e-06 -4.39349e-23 1.98722e-05 -1.39727e-23 1.65167e-05)
(1.34521e-05 -6.2039e-06 -8.30635e-23 2.01371e-05 -5.81461e-23 1.67942e-05)
(1.34738e-05 -6.27205e-06 9.92692e-24 1.98978e-05 -5.85445e-23 1.66694e-05)
(1.34607e-05 -6.15497e-06 1.3439e-23 1.9565e-05 -6.01933e-23 1.65381e-05)
(1.36504e-05 -6.13184e-06 -3.25565e-24 1.93766e-05 -4.87374e-23 1.64921e-05)
(2.87811e-05 8.18299e-06 8.9217e-24 2.2862e-05 -1.47151e-25 2.56948e-05)
(3.38532e-05 2.02796e-06 2.33401e-25 1.43951e-05 -1.45153e-25 2.40844e-05)
(2.93253e-05 -7.44325e-06 1.6381e-22 1.46002e-05 -1.6478e-24 2.22711e-05)
(2.19736e-05 -1.00632e-05 -3.05531e-21 2.10721e-05 4.97298e-22 2.149e-05)
(1.87942e-05 -1.04557e-05 -3.4878e-21 2.60951e-05 2.15202e-21 2.23234e-05)
(1.74768e-05 -1.0612e-05 1.62081e-21 2.8835e-05 -1.02086e-21 2.31106e-05)
(1.58986e-05 -9.80481e-06 -6.74643e-22 2.87937e-05 -5.65076e-22 2.2359e-05)
(1.411e-05 -8.24483e-06 1.57359e-21 2.63972e-05 5.18554e-23 2.02766e-05)
(1.2901e-05 -6.74683e-06 8.56115e-22 2.33261e-05 4.46886e-22 1.81345e-05)
(1.24883e-05 -5.78603e-06 -1.0816e-21 2.13815e-05 -8.65009e-22 1.69582e-05)
(1.2944e-05 -5.79057e-06 3.92226e-22 2.10848e-05 -4.32061e-23 1.70983e-05)
(1.44864e-05 -6.92756e-06 -5.2616e-23 2.16075e-05 -2.48064e-22 1.80221e-05)
(1.5218e-05 -7.73241e-06 9.63231e-24 2.2371e-05 -2.59495e-22 1.87998e-05)
(1.55526e-05 -8.02292e-06 2.06891e-23 2.25138e-05 1.92461e-22 1.90337e-05)
(1.55858e-05 -7.97625e-06 1.44091e-23 2.22833e-05 3.77228e-23 1.89109e-05)
(1.54114e-05 -7.72118e-06 2.84475e-23 2.18772e-05 -5.7413e-23 1.86849e-05)
(1.55585e-05 -7.62197e-06 3.73399e-23 2.15681e-05 9.70912e-23 1.85265e-05)
(2.94405e-05 9.36471e-06 -2.5249e-24 2.34011e-05 -4.98993e-23 2.6318e-05)
(3.49081e-05 3.36093e-06 -1.22108e-23 1.54003e-05 -8.933e-23 2.50767e-05)
(3.28706e-05 -6.13699e-06 -3.78391e-22 1.40405e-05 -7.38991e-25 2.37501e-05)
(2.60932e-05 -1.01621e-05 7.00993e-21 1.9507e-05 -2.12777e-21 2.28335e-05)
(2.19509e-05 -1.07887e-05 4.76216e-21 2.40345e-05 -2.55917e-21 2.28913e-05)
(2.01379e-05 -1.10143e-05 -2.40972e-21 2.69471e-05 2.09643e-21 2.34782e-05)
(1.8862e-05 -1.10171e-05 1.49555e-21 2.85633e-05 -1.24172e-22 2.3703e-05)
(1.75446e-05 -1.04826e-05 9.70724e-22 2.85018e-05 2.43258e-21 2.30221e-05)
(1.65012e-05 -9.61352e-06 -1.04438e-21 2.69497e-05 -1.36257e-21 2.17109e-05)
(1.59258e-05 -8.85768e-06 5.55133e-22 2.51932e-05 6.15164e-22 2.05721e-05)
(1.59299e-05 -8.48804e-06 -6.90566e-23 2.41954e-05 6.2234e-23 2.01866e-05)
(1.7116e-05 -9.1565e-06 6.62628e-23 2.41608e-05 -1.58589e-23 2.06224e-05)
(1.76763e-05 -9.71218e-06 2.4944e-22 2.44537e-05 -3.02423e-23 2.10815e-05)
(1.79438e-05 -9.89726e-06 -1.10445e-22 2.44929e-05 9.81532e-23 2.122e-05)
(1.79467e-05 -9.746e-06 -1.41829e-22 2.42783e-05 6.15413e-23 2.10774e-05)
(1.75923e-05 -9.37946e-06 8.51561e-23 2.38606e-05 1.12579e-22 2.07901e-05)
(1.77412e-05 -9.21566e-06 -4.44653e-23 2.34629e-05 -4.74267e-23 2.05394e-05)
(2.87949e-05 9.42138e-06 1.21041e-21 2.34198e-05 6.28941e-23 2.6007e-05)
(3.38542e-05 3.90136e-06 2.3212e-21 1.66036e-05 -3.86114e-23 2.51569e-05)
(3.41844e-05 -4.28327e-06 4.81733e-22 1.40829e-05 1.1964e-22 2.43666e-05)
(2.92234e-05 -9.20311e-06 -6.23538e-21 1.79424e-05 2.137e-21 2.36654e-05)
(2.494e-05 -1.04952e-05 -1.07155e-21 2.19248e-05 1.46803e-21 2.33693e-05)
(2.25435e-05 -1.07258e-05 2.62496e-21 2.45419e-05 -1.89493e-21 2.34823e-05)
(2.11595e-05 -1.08822e-05 -5.35119e-22 2.63457e-05 1.04728e-21 2.37385e-05)
(2.01962e-05 -1.09895e-05 -6.40041e-22 2.74116e-05 -4.93739e-22 2.38053e-05)
(1.96564e-05 -1.09598e-05 2.25602e-22 2.74751e-05 5.97264e-22 2.35414e-05)
(1.96607e-05 -1.08837e-05 4.58481e-23 2.67467e-05 -2.79056e-22 2.31294e-05)
(1.9626e-05 -1.08101e-05 5.67741e-23 2.58588e-05 1.43852e-23 2.2801e-05)
(2.021e-05 -1.101e-05 -5.96555e-23 2.53915e-05 1.79003e-22 2.27824e-05)
(2.03249e-05 -1.13231e-05 2.99152e-23 2.54029e-05 1.30272e-22 2.29065e-05)
(2.03827e-05 -1.14171e-05 3.21269e-23 2.54614e-05 -9.90631e-24 2.29322e-05)
(2.03094e-05 -1.12305e-05 5.90845e-23 2.53549e-05 -2.04543e-22 2.27823e-05)
(1.97544e-05 -1.08292e-05 -2.14546e-22 2.50365e-05 7.21537e-23 2.24917e-05)
(1.99637e-05 -1.06349e-05 7.31444e-23 2.46195e-05 2.27199e-23 2.21903e-05)
(2.6684e-05 8.35715e-06 -1.0772e-21 2.28907e-05 3.27965e-23 2.4661e-05)
(3.09306e-05 3.62119e-06 -2.04134e-21 1.75102e-05 2.12591e-22 2.42005e-05)
(3.29336e-05 -2.47136e-06 -3.58315e-21 1.45913e-05 1.89127e-22 2.39169e-05)
(3.03993e-05 -7.37443e-06 2.1027e-21 1.66318e-05 -9.16261e-22 2.36106e-05)
(2.6979e-05 -9.40213e-06 -1.34061e-21 1.97905e-05 1.17594e-22 2.33599e-05)
(2.44523e-05 -9.92413e-06 -9.42466e-22 2.21227e-05 9.43337e-22 2.32417e-05)
(2.28302e-05 -1.00709e-05 -4.75336e-23 2.36984e-05 -5.35316e-22 2.32507e-05)
(2.18144e-05 -1.02464e-05 -1.26579e-21 2.4804e-05 1.63587e-22 2.33193e-05)
(2.13441e-05 -1.05009e-05 -1.05527e-21 2.53934e-05 1.85168e-22 2.33715e-05)
(2.14822e-05 -1.08188e-05 6.74924e-22 2.53838e-05 1.12353e-22 2.34055e-05)
(2.19117e-05 -1.12906e-05 2.07529e-22 2.50352e-05 -7.13331e-23 2.34864e-05)
(2.26372e-05 -1.14417e-05 1.13402e-22 2.45838e-05 1.23287e-22 2.3472e-05)
(2.23573e-05 -1.16864e-05 -3.26248e-23 2.45697e-05 -5.6213e-23 2.34913e-05)
(2.22002e-05 -1.18493e-05 -6.09773e-22 2.47715e-05 7.66096e-23 2.34977e-05)
(2.20725e-05 -1.18033e-05 2.10158e-22 2.4886e-05 1.98957e-23 2.3411e-05)
(2.135e-05 -1.15284e-05 3.25731e-22 2.47882e-05 -6.44857e-23 2.32033e-05)
(2.16848e-05 -1.13759e-05 -3.60396e-22 2.44456e-05 1.1791e-22 2.29141e-05)
(2.32621e-05 6.35916e-06 7.06279e-23 2.16906e-05 4.97279e-24 2.23154e-05)
(2.6593e-05 2.68993e-06 -1.5935e-22 1.76798e-05 -8.57405e-23 2.21855e-05)
(2.93369e-05 -1.23456e-06 3.11134e-21 1.5065e-05 -4.36169e-22 2.22951e-05)
(2.89996e-05 -5.23073e-06 -2.00394e-22 1.56225e-05 7.67784e-23 2.23881e-05)
(2.71159e-05 -7.58486e-06 1.71628e-22 1.76758e-05 -1.59294e-22 2.23976e-05)
(2.51602e-05 -8.54708e-06 -1.25765e-22 1.96026e-05 -1.95784e-22 2.23565e-05)
(2.3639e-05 -8.86877e-06 1.38093e-22 2.09925e-05 2.32059e-23 2.23059e-05)
(2.25617e-05 -9.04322e-06 1.06223e-21 2.1954e-05 -3.86447e-22 2.22692e-05)
(2.19302e-05 -9.26092e-06 3.01701e-23 2.25497e-05 -3.62691e-22 2.22484e-05)
(2.16894e-05 -9.5617e-06 -9.67872e-22 2.27524e-05 4.43858e-22 2.22457e-05)
(2.1962e-05 -1.00204e-05 -2.46016e-23 2.25972e-05 9.45914e-23 2.22839e-05)
(2.26642e-05 -1.03535e-05 -9.6495e-22 2.23505e-05 1.29966e-22 2.23494e-05)
(2.24374e-05 -1.06085e-05 2.52937e-22 2.23165e-05 -3.07256e-22 2.24022e-05)
(2.23231e-05 -1.08508e-05 4.31286e-22 2.2509e-05 -2.50497e-22 2.24504e-05)
(2.23109e-05 -1.09966e-05 -3.2687e-22 2.27336e-05 1.3432e-22 2.24565e-05)
(2.15856e-05 -1.09574e-05 -4.04495e-22 2.28243e-05 1.37979e-22 2.23737e-05)
(2.21102e-05 -1.09033e-05 2.472e-22 2.25913e-05 -1.32499e-22 2.21435e-05)
(1.90748e-05 3.85637e-06 -9.72162e-22 1.96282e-05 -4.39829e-23 1.91697e-05)
(2.14697e-05 1.38051e-06 5.17312e-23 1.68437e-05 -1.08791e-24 1.92442e-05)
(2.41306e-05 -7.90654e-07 8.86372e-23 1.4894e-05 1.20229e-22 1.95589e-05)
(2.51271e-05 -3.43929e-06 2.2474e-21 1.46496e-05 -1.33008e-22 1.99129e-05)
(2.47611e-05 -5.49459e-06 4.34076e-23 1.56367e-05 1.32571e-23 2.01858e-05)
(2.38317e-05 -6.68064e-06 8.39501e-22 1.69404e-05 -9.84392e-23 2.03588e-05)
(2.28734e-05 -7.25551e-06 -4.2825e-22 1.80626e-05 9.10234e-23 2.04479e-05)
(2.20427e-05 -7.55368e-06 -2.1408e-21 1.89063e-05 2.56594e-22 2.04754e-05)
(2.14057e-05 -7.77733e-06 2.34449e-21 1.94868e-05 -2.28273e-22 2.04575e-05)
(2.09562e-05 -8.02092e-06 3.60693e-22 1.98158e-05 -2.99277e-22 2.04083e-05)
(2.06255e-05 -8.28621e-06 -9.10939e-22 1.98922e-05 1.28175e-22 2.03375e-05)
(2.07646e-05 -8.58586e-06 2.73897e-23 1.97761e-05 -2.32348e-22 2.02577e-05)
(2.08216e-05 -8.80652e-06 1.09184e-21 1.96472e-05 -9.18602e-23 2.0224e-05)
(2.08252e-05 -9.00355e-06 3.22701e-22 1.96218e-05 6.57489e-23 2.02251e-05)
(2.08824e-05 -9.17618e-06 7.5409e-22 1.96735e-05 -1.2533e-22 2.02199e-05)
(2.01958e-05 -9.25213e-06 -1.5447e-22 1.97029e-05 -1.76797e-22 2.01596e-05)
(2.08432e-05 -9.22456e-06 -4.58151e-22 1.94795e-05 1.59691e-22 1.99373e-05)
(1.48437e-05 1.5677e-06 6.54223e-22 1.66389e-05 -4.70779e-23 1.55897e-05)
(1.63102e-05 1.05235e-07 4.2411e-23 1.48614e-05 5.86874e-24 1.56924e-05)
(1.83464e-05 -9.1948e-07 -2.36146e-22 1.35072e-05 1.41768e-23 1.59807e-05)
(1.96705e-05 -2.37191e-06 -6.21984e-22 1.29957e-05 2.40066e-22 1.63726e-05)
(2.0188e-05 -3.76968e-06 -3.03228e-23 1.32781e-05 1.26057e-24 1.67589e-05)
(2.01754e-05 -4.8097e-06 2.53042e-23 1.39705e-05 7.93073e-23 1.70866e-05)
(1.9948e-05 -5.46808e-06 -3.36433e-22 1.47207e-05 -8.14838e-24 1.73347e-05)
(1.9624e-05 -5.86933e-06 3.64534e-21 1.53775e-05 -3.90277e-22 1.75042e-05)
(1.92742e-05 -6.13245e-06 -1.78365e-21 1.59081e-05 4.07175e-22 1.76033e-05)
(1.8941e-05 -6.33422e-06 8.43579e-22 1.63097e-05 -1.08898e-23 1.76414e-05)
(1.85991e-05 -6.50211e-06 9.92608e-24 1.65874e-05 -1.58242e-22 1.76265e-05)
(1.84219e-05 -6.59335e-06 3.84027e-22 1.67122e-05 8.33785e-23 1.75632e-05)
(1.82548e-05 -6.71498e-06 1.06767e-21 1.67021e-05 -2.53863e-23 1.74918e-05)
(1.8197e-05 -6.83601e-06 -3.75218e-22 1.66095e-05 8.8013e-23 1.74164e-05)
(1.83619e-05 -6.9548e-06 -1.28018e-21 1.65108e-05 2.38742e-22 1.73503e-05)
(1.78351e-05 -7.04429e-06 1.73352e-21 1.64274e-05 -1.92946e-22 1.72763e-05)
(1.84278e-05 -6.95769e-06 -4.9723e-22 1.61796e-05 7.06786e-24 1.70454e-05)
(2.02883e-06 -2.15601e-07 0 2.03696e-06 0 2.0325e-06)
(1.70498e-06 -1.36686e-07 0 1.70817e-06 0 1.7064e-06)
(1.43823e-06 -8.95215e-08 0 1.43961e-06 0 1.43885e-06)
(1.22575e-06 -6.18165e-08 0 1.2264e-06 0 1.22604e-06)
(1.05295e-06 -4.46195e-08 0 1.05328e-06 0 1.0531e-06)
(9.12192e-07 -3.35225e-08 4.76008e-29 9.12359e-07 2.06471e-27 9.12266e-07)
(7.96484e-07 -2.60336e-08 -5.88529e-29 7.96572e-07 -9.44155e-28 7.96523e-07)
(7.00717e-07 -2.07805e-08 -3.7859e-29 7.00763e-07 -5.52393e-28 7.00738e-07)
(6.20822e-07 -1.69585e-08 5.89796e-29 6.20844e-07 -4.4909e-28 6.20832e-07)
(5.53604e-07 -1.40793e-08 6.68495e-30 5.53612e-07 -6.21678e-28 5.53608e-07)
(4.96669e-07 -1.18483e-08 4.81943e-29 4.96668e-07 8.64049e-28 4.96668e-07)
(4.48279e-07 -1.00902e-08 -8.62737e-29 4.48273e-07 2.59665e-27 4.48276e-07)
(4.07131e-07 -8.69051e-09 -1.82489e-29 4.07121e-07 -2.28913e-27 4.07126e-07)
(3.71769e-07 -7.56037e-09 4.0254e-29 3.71756e-07 1.65736e-30 3.71763e-07)
(3.42881e-07 -6.68296e-09 0 3.42867e-07 2.27081e-27 3.42874e-07)
(3.17342e-07 -5.95364e-09 1.29036e-28 3.17326e-07 -4.18916e-27 3.17333e-07)
(5.93101e-06 -1.73692e-06 2.25621e-25 6.29813e-06 -1.0869e-24 6.11723e-06)
(5.91268e-06 -1.80738e-06 0 6.16952e-06 9.43786e-25 6.04143e-06)
(5.82417e-06 -1.80233e-06 0 6.00879e-06 -4.2751e-25 5.91651e-06)
(5.69117e-06 -1.75346e-06 0 5.82416e-06 3.85588e-25 5.75731e-06)
(5.52593e-06 -1.67699e-06 1.43865e-26 5.62278e-06 -3.55397e-28 5.57395e-06)
(5.34034e-06 -1.58591e-06 -3.37786e-26 5.41109e-06 4.20063e-26 5.37527e-06)
(5.14221e-06 -1.48781e-06 7.23559e-27 5.19399e-06 -9.67919e-26 5.16768e-06)
(4.93771e-06 -1.38793e-06 9.72683e-27 4.97548e-06 5.15045e-26 4.9562e-06)
(4.73125e-06 -1.28948e-06 -1.03365e-26 4.75856e-06 4.60611e-26 4.74455e-06)
(4.52599e-06 -1.19436e-06 2.32555e-26 4.54536e-06 -7.21073e-26 4.53536e-06)
(4.32435e-06 -1.10384e-06 1.36162e-26 4.3376e-06 2.94474e-26 4.33071e-06)
(4.12789e-06 -1.01853e-06 -4.6241e-26 4.13629e-06 -8.07612e-26 4.13185e-06)
(3.93898e-06 -9.39669e-07 5.88994e-27 3.94354e-06 2.71135e-25 3.94109e-06)
(3.75785e-06 -8.66647e-07 4.18575e-26 3.75902e-06 -1.86773e-25 3.75827e-06)
(3.59125e-06 -8.03546e-07 -8.71292e-26 3.58983e-06 4.47228e-25 3.59056e-06)
(3.43252e-06 -7.44144e-07 6.03626e-26 3.42783e-06 -5.11727e-25 3.42995e-06)
(7.66564e-06 -2.13182e-06 -2.50305e-25 8.78147e-06 1.10151e-24 8.2325e-06)
(7.81729e-06 -2.29671e-06 -4.44415e-25 8.70615e-06 5.90873e-25 8.26664e-06)
(7.87396e-06 -2.39818e-06 2.48934e-25 8.59386e-06 -1.75538e-24 8.23764e-06)
(7.86927e-06 -2.45708e-06 -1.91611e-25 8.44723e-06 2.74917e-25 8.16034e-06)
(7.81443e-06 -2.48172e-06 -9.19212e-26 8.28046e-06 3.02771e-27 8.04867e-06)
(7.72441e-06 -2.48199e-06 0 8.0998e-06 -5.43948e-25 7.91267e-06)
(7.6085e-06 -2.46405e-06 0 7.91092e-06 5.30108e-25 7.75989e-06)
(7.4745e-06 -2.43292e-06 0 7.71754e-06 0 7.59596e-06)
(7.32799e-06 -2.39221e-06 0 7.52232e-06 0 7.42497e-06)
(7.1732e-06 -2.34455e-06 0 7.32698e-06 4.91345e-25 7.24985e-06)
(7.01318e-06 -2.29208e-06 0 7.13272e-06 -4.75746e-25 7.07272e-06)
(6.85028e-06 -2.23638e-06 8.92111e-26 6.93995e-06 -9.24251e-25 6.89488e-06)
(6.68625e-06 -2.17918e-06 -3.0657e-25 6.7498e-06 2.11407e-24 6.71791e-06)
(6.52258e-06 -2.11961e-06 2.97642e-25 6.56033e-06 -1.17997e-24 6.54116e-06)
(6.35955e-06 -2.06249e-06 -4.8403e-25 6.37562e-06 -1.29092e-24 6.36794e-06)
(6.20138e-06 -1.99984e-06 2.20878e-25 6.18885e-06 2.9147e-24 6.19434e-06)
(8.83291e-06 -2.52214e-06 1.20373e-25 1.08241e-05 3.82714e-24 9.83409e-06)
(9.03277e-06 -2.64755e-06 -7.14383e-25 1.07087e-05 -3.35623e-24 9.87411e-06)
(9.13007e-06 -2.72494e-06 8.8019e-25 1.05609e-05 1.16769e-24 9.85004e-06)
(9.16812e-06 -2.77711e-06 2.56857e-25 1.03779e-05 -3.56042e-24 9.77684e-06)
(9.15216e-06 -2.80587e-06 0 1.01776e-05 1.69303e-24 9.66844e-06)
(9.09822e-06 -2.81866e-06 0 9.96539e-06 0 9.53487e-06)
(9.01484e-06 -2.81864e-06 0 9.74734e-06 0 9.38374e-06)
(8.91011e-06 -2.80881e-06 0 9.52682e-06 0 9.22069e-06)
(8.78983e-06 -2.79117e-06 0 9.30622e-06 0 9.04986e-06)
(8.65863e-06 -2.7672e-06 0 9.08685e-06 0 8.87423e-06)
(8.5199e-06 -2.73817e-06 0 8.86951e-06 0 8.6959e-06)
(8.3767e-06 -2.70483e-06 2.74207e-25 8.65392e-06 9.03186e-27 8.51617e-06)
(8.23044e-06 -2.66874e-06 -1.25853e-24 8.44077e-06 1.47618e-24 8.33638e-06)
(8.08523e-06 -2.62831e-06 6.93537e-25 8.22641e-06 -1.44916e-24 8.15591e-06)
(7.93716e-06 -2.5906e-06 2.47231e-25 8.01595e-06 -3.86559e-24 7.97758e-06)
(7.79983e-06 -2.54e-06 5.05255e-25 7.79544e-06 1.0982e-24 7.79583e-06)
(9.8753e-06 -3.09057e-06 0 1.27896e-05 -2.81226e-24 1.13349e-05)
(1.00769e-05 -3.16015e-06 0 1.26062e-05 -2.81989e-26 1.13403e-05)
(1.01735e-05 -3.18735e-06 -3.69897e-25 1.23932e-05 2.97805e-24 1.12845e-05)
(1.02175e-05 -3.1987e-06 1.75388e-24 1.21465e-05 -4.39687e-24 1.11828e-05)
(1.0208e-05 -3.19267e-06 -9.87155e-25 1.18855e-05 4.29115e-24 1.10481e-05)
(1.01615e-05 -3.17698e-06 -3.35832e-25 1.16161e-05 8.29625e-27 1.08901e-05)
(1.00854e-05 -3.15386e-06 0 1.13442e-05 9.02301e-25 1.07162e-05)
(9.98774e-06 -3.12581e-06 0 1.10732e-05 -8.86466e-25 1.05319e-05)
(9.87433e-06 -3.09427e-06 0 1.0805e-05 -8.78428e-25 1.0341e-05)
(9.75005e-06 -3.0602e-06 0 1.05405e-05 8.64506e-25 1.01465e-05)
(9.61852e-06 -3.02448e-06 0 1.02801e-05 0 9.95048e-06)
(9.48351e-06 -2.98728e-06 7.18072e-25 1.00228e-05 3.41585e-24 9.75405e-06)
(9.34644e-06 -2.95017e-06 -3.7201e-24 9.76856e-06 -5.64322e-24 9.55852e-06)
(9.2141e-06 -2.91036e-06 2.23627e-24 9.51238e-06 2.25293e-24 9.3633e-06)
(9.07899e-06 -2.87619e-06 -4.46161e-26 9.2596e-06 -8.07001e-27 9.17115e-06)
(8.96779e-06 -2.83128e-06 2.1081e-24 8.99139e-06 5.42942e-24 8.97671e-06)
(1.09562e-05 -3.84565e-06 1.61338e-24 1.47925e-05 1.55522e-23 1.2879e-05)
(1.11322e-05 -3.85245e-06 0 1.45278e-05 0 1.28274e-05)
(1.12046e-05 -3.8226e-06 -9.11133e-25 1.4236e-05 3.75137e-26 1.27209e-05)
(1.12339e-05 -3.7853e-06 4.14441e-24 1.39155e-05 9.12652e-24 1.25742e-05)
(1.12139e-05 -3.73567e-06 -2.28282e-24 1.35837e-05 -5.29478e-24 1.23988e-05)
(1.11602e-05 -3.6817e-06 -6.25811e-25 1.32475e-05 -3.72034e-24 1.22038e-05)
(1.1079e-05 -3.62477e-06 -1.14203e-24 1.29125e-05 3.03766e-25 1.19958e-05)
(1.09779e-05 -3.56696e-06 4.4727e-25 1.25817e-05 -2.97953e-25 1.17799e-05)
(1.08623e-05 -3.50928e-06 1.38761e-24 1.22568e-05 -2.92995e-25 1.15597e-05)
(1.07372e-05 -3.45239e-06 -7.07609e-25 1.19383e-05 2.94706e-25 1.1338e-05)
(1.06064e-05 -3.39692e-06 6.88433e-25 1.16259e-05 1.87619e-26 1.11165e-05)
(1.04743e-05 -3.34273e-06 -4.7297e-24 1.13182e-05 -5.98887e-24 1.08964e-05)
(1.03424e-05 -3.2917e-06 2.87777e-24 1.10143e-05 -1.00387e-25 1.06789e-05)
(1.02202e-05 -3.24026e-06 8.51038e-25 1.07083e-05 -9.96537e-25 1.04636e-05)
(1.0097e-05 -3.19829e-06 1.79933e-24 1.04043e-05 7.06094e-24 1.02532e-05)
(1.00146e-05 -3.15097e-06 -5.5051e-24 1.00816e-05 -5.5552e-24 1.00433e-05)
(1.21839e-05 -4.81302e-06 -1.30446e-23 1.68779e-05 -2.46876e-23 1.45396e-05)
(1.23114e-05 -4.74898e-06 -4.21133e-24 1.65248e-05 1.52782e-23 1.4415e-05)
(1.23388e-05 -4.65373e-06 2.2106e-24 1.61458e-05 -1.51605e-23 1.42439e-05)
(1.23345e-05 -4.55941e-06 -8.22991e-24 1.57465e-05 2.99024e-23 1.40404e-05)
(1.22884e-05 -4.45797e-06 -1.0279e-26 1.53388e-05 -1.35808e-23 1.3814e-05)
(1.2214e-05 -4.35758e-06 4.75665e-24 1.49314e-05 -1.26567e-24 1.35729e-05)
(1.21166e-05 -4.25895e-06 1.05962e-24 1.45289e-05 5.11321e-25 1.33229e-05)
(1.20026e-05 -4.16381e-06 0 1.41342e-05 -5.01121e-25 1.30685e-05)
(1.1877e-05 -4.07278e-06 0 1.37486e-05 -4.79624e-25 1.28129e-05)
(1.17447e-05 -3.9862e-06 0 1.33721e-05 4.55932e-25 1.25585e-05)
(1.16095e-05 -3.90455e-06 -2.20439e-24 1.30039e-05 -5.44562e-26 1.23068e-05)
(1.14761e-05 -3.82744e-06 1.09807e-23 1.2642e-05 -7.50233e-24 1.2059e-05)
(1.13466e-05 -3.75705e-06 -8.69581e-24 1.22843e-05 2.14965e-23 1.1816e-05)
(1.12323e-05 -3.68925e-06 8.81758e-24 1.19256e-05 -1.59855e-23 1.15777e-05)
(1.11198e-05 -3.63549e-06 -1.08651e-23 1.15661e-05 2.01892e-24 1.13468e-05)
(1.10694e-05 -3.58423e-06 6.30116e-24 1.11872e-05 -2.96421e-23 1.11204e-05)
(1.36461e-05 -6.01069e-06 3.17906e-23 1.9026e-05 -2.88728e-23 1.63505e-05)
(1.37064e-05 -5.87045e-06 -6.55908e-24 1.85867e-05 5.04111e-24 1.61422e-05)
(1.36681e-05 -5.70238e-06 1.68718e-23 1.81203e-05 -5.23444e-24 1.58966e-05)
(1.36102e-05 -5.54317e-06 -1.91191e-23 1.76437e-05 -1.60495e-24 1.56273e-05)
(1.35209e-05 -5.38232e-06 -1.47599e-25 1.71615e-05 2.30344e-24 1.53421e-05)
(1.34106e-05 -5.2277e-06 3.20833e-24 1.66839e-05 4.55576e-24 1.50479e-05)
(1.32836e-05 -5.07979e-06 -2.83438e-24 1.62147e-05 5.96953e-25 1.47498e-05)
(1.31453e-05 -4.94002e-06 8.5607e-25 1.57566e-05 -5.82521e-25 1.44514e-05)
(1.3e-05 -4.80874e-06 3.58465e-24 1.53104e-05 -5.6285e-25 1.41556e-05)
(1.28522e-05 -4.6861e-06 -1.6247e-24 1.48757e-05 5.70135e-25 1.38643e-05)
(1.27056e-05 -4.57247e-06 -6.34855e-25 1.44513e-05 -1.04554e-26 1.35789e-05)
(1.25652e-05 -4.46742e-06 5.23932e-24 1.4035e-05 9.80726e-24 1.33002e-05)
(1.24337e-05 -4.3734e-06 -2.43189e-23 1.36233e-05 -5.65985e-24 1.30294e-05)
(1.23236e-05 -4.28621e-06 1.37259e-23 1.32123e-05 5.33527e-24 1.27664e-05)
(1.22189e-05 -4.21892e-06 -2.01233e-25 1.27974e-05 -9.80869e-24 1.2514e-05)
(1.22023e-05 -4.16372e-06 3.39214e-23 1.23646e-05 1.68188e-23 1.22709e-05)
(1.53949e-05 -7.42013e-06 1.15394e-23 2.11371e-05 7.88765e-23 1.8289e-05)
(1.53776e-05 -7.2055e-06 0 2.06279e-05 -6.35519e-23 1.79965e-05)
(1.5257e-05 -6.96259e-06 0 2.00879e-05 -7.86252e-24 1.7675e-05)
(1.51274e-05 -6.73484e-06 0 1.95463e-05 2.33851e-23 1.73376e-05)
(1.49784e-05 -6.51111e-06 0 1.90016e-05 -2.74829e-23 1.69911e-05)
(1.48168e-05 -6.29791e-06 0 1.84641e-05 1.18195e-23 1.66413e-05)
(1.46461e-05 -6.09612e-06 0 1.79373e-05 -2.08588e-24 1.62926e-05)
(1.44707e-05 -5.907e-06 0 1.74238e-05 2.08879e-24 1.5948e-05)
(1.42944e-05 -5.73087e-06 0 1.6924e-05 2.10797e-24 1.56099e-05)
(1.41211e-05 -5.56787e-06 0 1.64376e-05 -2.11043e-24 1.528e-05)
(1.39545e-05 -5.41839e-06 0 1.5963e-05 0 1.49594e-05)
(1.37993e-05 -5.2823e-06 0 1.54979e-05 -2.30868e-23 1.4649e-05)
(1.36594e-05 -5.16233e-06 0 1.50381e-05 5.74603e-24 1.43499e-05)