/*--------------------------------*- C++ -*----------------------------------*\
| =========                 |                                                 |
| \\      /  F ield         | OpenFOAM: The Open Source CFD Toolbox           |
|  \\    /   O peration     | Version:  2.3.x                                 |
|   \\  /    A nd           | Web:      www.OpenFOAM.org                      |
|    \\/     M anipulation  |                                                 |
\*---------------------------------------------------------------------------*/
FoamFile
{
    version     2.0;
    format      ascii;
    class       volSymmTensorField;
    location    "0";
    object      Tau;
}
// * * * * * * * * * * * * * * * * * * * * * * * * * * * * * * * * * * * * * //

dimensions      [0 2 -2 0 0 0 0];

internalField   nonuniform List<symmTensor> 
3000
(
(1.018030000000000018e-07 -1.551070000000003206e-09 4.650738312157220910e-31 1.019790000000000028e-07 -2.848670422900228229e-32 1.018840000000000010e-07)
(6.640799999999999484e-08 -6.574409999999931392e-10 -3.510963000149343369e-31 6.724669999999999030e-08 2.269282854981371794e-31 6.682179999999999025e-08)
(4.087500000000000040e-08 -2.960779999997387426e-12 -6.385099999995455137e-27 4.087969999999999647e-08 -6.236229999995292536e-27 4.086410000000000657e-08)
(9.531609999999999679e-08 1.889890000000009073e-10 -5.101516730286782463e-27 9.358409999999997837e-08 2.206093036246642577e-26 9.440539999999998586e-08)
(2.125649999999999714e-07 5.141069999999930425e-10 -5.637339999999980384e-25 2.081410000000000107e-07 -7.071049999999863027e-25 2.102779999999999722e-07)
(2.524800000000000480e-07 7.851820000000054679e-10 1.018780000000007713e-24 2.466499999999999488e-07 1.384740000000009322e-24 2.495029999999999810e-07)
(2.416089999999999237e-07 8.731049999999869259e-10 2.467299999999944709e-25 2.354850000000000205e-07 3.079689999999966549e-25 2.384969999999999948e-07)
(2.435899999999999730e-07 1.134359999999981388e-09 2.534436399209337300e-26 2.369240000000000376e-07 -7.343310562191577679e-26 2.402100000000000049e-07)
(2.966769999999998977e-07 2.346609999999959081e-09 5.423449999999952364e-25 2.878910000000000465e-07 1.068049999999977736e-24 2.922319999999999661e-07)
(4.179989999999998772e-07 6.139029999999978541e-09 -1.489280000000017126e-24 4.054590000000000045e-07 -1.283849999999997697e-24 4.116669999999998970e-07)
(6.207199999999999625e-07 1.566159999999992697e-08 -2.474369999999995207e-24 6.066180000000000127e-07 -1.403369999999994383e-23 6.136150000000000322e-07)
(9.580839999999999651e-07 3.805790000000002344e-08 1.236120000000000137e-24 9.546890000000000594e-07 1.945790000000001902e-24 9.564290000000000207e-07)
(1.563620000000000286e-06 1.024389999999996906e-07 -4.891096408751513335e-25 1.569509999999999818e-06 -1.480143029550981997e-26 1.566409999999999797e-06)
(2.389160000000000093e-06 2.600729999999993669e-07 -4.525228421177143530e-27 2.437969999999999801e-06 -4.017946920982277230e-28 2.411640000000000596e-06)
(3.442540000000000332e-06 -1.456389999999997863e-07 7.451750415562160892e-26 3.851129999999999837e-06 -1.174596039410455880e-25 3.624070000000000608e-06)
(2.974640000000000119e-06 -5.802109999999997418e-07 -1.826056638703699380e-26 3.067549999999999963e-06 1.512446696527259106e-27 3.016699999999999848e-06)
(2.459630000000000115e-06 -3.613629999999994487e-07 -7.583893592951995063e-27 2.484799999999999910e-06 3.013165038180558423e-28 2.470809999999999557e-06)
(1.858709999999999734e-06 -1.126389999999999408e-07 -2.338140637328350827e-31 1.865230000000000139e-06 6.705487528130016463e-33 1.862000000000000130e-06)
(1.180719999999999895e-06 -5.045849999999996839e-08 -1.855130543485641173e-25 1.234989999999999970e-06 9.755538984940337511e-26 1.208480000000000032e-06)
(6.890180000000000623e-07 -8.507029999999911634e-09 1.033863348770273115e-24 7.112120000000000822e-07 -1.261217223046617698e-24 7.008709999999998707e-07)
(1.554550000000000007e-06 -7.622350000000025899e-10 1.126170000000016694e-23 1.505770000000000069e-06 1.045470000000010622e-23 1.532089999999999844e-06)
(3.076469999999999278e-06 2.953799999999981425e-08 1.529679999999997212e-23 2.787180000000001324e-06 4.677529999999961529e-23 2.940749999999999754e-06)
(3.325469999999999350e-06 6.248459999999976001e-08 5.722639999999973879e-23 2.814280000000000607e-06 4.349469999999974672e-23 3.080159999999999915e-06)
(3.106669999999999853e-06 7.317789999999997660e-08 -1.058429999999999595e-22 2.519759999999999741e-06 -4.872419999999996508e-23 2.821359999999999953e-06)
(3.019549999999999321e-06 1.021509999999999067e-07 -1.982250964385536856e-24 2.372659999999999913e-06 6.414128431997273016e-24 2.703019999999999491e-06)
(3.264899999999999861e-06 2.017099999999997594e-07 -1.568969999999998528e-22 2.500230000000000624e-06 -1.882729999999996728e-22 2.889079999999999874e-06)
(3.713239999999999705e-06 4.074289999999997502e-07 3.016680000000010333e-22 2.897149999999999443e-06 5.549319999999992024e-22 3.310769999999999305e-06)
(4.192120000000000616e-06 6.767790000000000809e-07 9.357559999999879723e-23 3.629640000000001047e-06 8.690800000000004237e-22 3.914060000000000943e-06)
(4.664809999999999642e-06 8.402300000000003181e-07 5.037120000000001901e-23 4.739699999999999699e-06 -1.605310000000000103e-22 4.699530000000000048e-06)
(5.283649999999999802e-06 7.416740000000001600e-07 4.473137254014168047e-24 5.720640000000000170e-06 1.343524761957416367e-24 5.497889999999997941e-06)
(5.445590000000000153e-06 2.779630000000003298e-07 -2.619913772893192008e-25 6.267350000000001921e-06 -3.793428740854933386e-25 5.865770000000001947e-06)
(5.168930000000001856e-06 -5.723319999999995162e-07 1.522507227463310304e-24 6.387300000000000662e-06 -1.531767720720542720e-24 5.822290000000000290e-06)
(5.588579999999998762e-06 -1.169379999999999212e-06 -7.102927577382359429e-25 6.362539999999999056e-06 2.255760769450906139e-25 5.992489999999999948e-06)
(5.847290000000000898e-06 -1.549299999999999295e-06 2.881712925852948220e-25 6.385600000000000323e-06 -4.923124743815011562e-26 6.121350000000000269e-06)
(7.380030000000000049e-06 -1.221729999999998592e-06 -7.022379809184870503e-25 7.370900000000000867e-06 -3.288688421281935756e-27 7.376620000000002059e-06)
(4.781240000000000322e-06 -6.198000000000001899e-07 -4.430454139345331731e-23 5.323990000000001181e-06 1.835686967104508334e-23 5.067230000000000780e-06)
(2.798380000000000472e-06 -1.691149999999996982e-07 -4.507134733400905247e-24 3.247669999999999434e-06 5.796258229061057495e-24 3.030160000000000394e-06)
(5.258140000000000787e-06 -2.048529999999997499e-07 -1.603899999999999760e-22 6.089720000000000032e-06 -2.091729999999997261e-22 5.664650000000000898e-06)
(7.128110000000001113e-06 2.407469999999985029e-08 1.084039999999997214e-21 7.418749999999999062e-06 1.040329999999986624e-21 7.290570000000001418e-06)
(6.743619999999999819e-06 1.251499999999995292e-07 -1.145269999999998795e-21 6.229630000000001713e-06 -1.595029999999991262e-21 6.495660000000000079e-06)
(6.166449999999998364e-06 1.354419999999995528e-07 1.676699999999997221e-21 5.186030000000002082e-06 1.471189999999994822e-21 5.679289999999999287e-06)
(5.786779999999997982e-06 2.194169999999994296e-07 5.810617519255980429e-24 4.609490000000000653e-06 -1.563650314014034987e-23 5.199939999999998532e-06)
(5.717989999999999442e-06 3.867409999999993733e-07 1.415719999999998797e-21 4.550780000000001684e-06 1.371679999999997063e-21 5.136159999999999797e-06)
(5.872239999999998007e-06 5.941569999999984560e-07 -9.023049999999962259e-22 4.959230000000001136e-06 -1.464109999999996292e-21 5.418200000000000064e-06)
(6.155640000000000241e-06 7.346679999999990450e-07 4.390930000000016435e-22 5.850600000000000363e-06 1.350669999999998441e-21 6.006849999999998231e-06)
(6.517600000000002616e-06 5.685939999999981893e-07 -1.055379999999996839e-22 7.161579999999998778e-06 1.260919999999996569e-22 6.844620000000001054e-06)
(6.922550000000001170e-06 1.228839999999998714e-07 4.548537129548382783e-25 8.308859999999999930e-06 2.539708328456392637e-24 7.622599999999998813e-06)
(6.836680000000001262e-06 -3.922029999999991611e-07 1.338588949190760666e-24 8.745569999999997651e-06 -3.213945373379763488e-24 7.805289999999998922e-06)
(6.393789999999999816e-06 -1.066879999999999558e-06 -1.092291180634454441e-24 8.581629999999999692e-06 1.114475426296186145e-24 7.493119999999999165e-06)
(6.947760000000002069e-06 -1.536829999999998972e-06 9.622697173906030221e-25 8.613449999999997974e-06 -5.127059729836684706e-25 7.793590000000002067e-06)
(7.390590000000001859e-06 -1.893149999999998976e-06 -2.632490993862553075e-24 8.781319999999999808e-06 9.546762718160514043e-25 8.094700000000002306e-06)
(1.334959999999999667e-05 -3.007629999999999358e-06 -5.890108219555317147e-23 1.306969999999999957e-05 -1.915701531707782207e-24 1.316749999999999887e-05)
(9.573629999999999681e-06 -2.206809999999999205e-06 2.415368598759780088e-22 1.092379999999999865e-05 -7.242625620185471174e-23 1.026209999999999785e-05)
(6.133330000000002313e-06 -1.191739999999998944e-06 1.747305993446131332e-22 8.727550000000000829e-06 -1.856387508294503338e-22 7.461570000000000289e-06)
(7.392070000000001208e-06 -1.920699999999999669e-06 2.238295283399544545e-22 1.523219999999999961e-05 -4.629816094320456559e-22 1.126050000000000002e-05)
(8.706180000000003438e-06 -9.724779999999993990e-07 -1.273519999999998825e-21 1.362959999999999907e-05 -1.556619999999999627e-21 1.116550000000000008e-05)
(8.138920000000002367e-06 -3.204660000000001116e-07 -1.574229999999999067e-22 1.028919999999999968e-05 9.852560000000060339e-24 9.226829999999999884e-06)
(7.446600000000000837e-06 -1.839329999999996923e-07 -3.809349999999977220e-21 8.216939999999998615e-06 -4.290559999999998760e-21 7.829139999999998702e-06)
(6.948099999999998749e-06 8.336810000000020969e-09 -8.573209999999698238e-22 7.020279999999999809e-06 -9.237650000000505471e-22 6.981659999999998475e-06)
(6.763729999999999699e-06 2.206759999999992954e-07 -3.647799999999989376e-21 6.616129999999999621e-06 -4.211779999999984972e-21 6.689320000000000186e-06)
(6.879789999999999059e-06 3.620039999999992491e-07 3.702989999999992474e-22 6.872919999999999580e-06 -4.665639999999926142e-23 6.877349999999999468e-06)
(7.216300000000000687e-06 3.411939999999989456e-07 -4.390439999999974764e-22 7.747979999999997941e-06 -9.176379999999948227e-22 7.486920000000001664e-06)
(7.672850000000000576e-06 -8.778900000000000611e-08 1.360159999999997001e-22 9.126299999999999341e-06 -1.611850000000059179e-23 8.407639999999998330e-06)
(8.018419999999999031e-06 -6.869640000000002214e-07 2.108234271269992050e-24 1.047580000000000057e-05 -3.760020231006949228e-24 9.250599999999999150e-06)
(7.922300000000002059e-06 -1.153779999999998464e-06 -1.112331514528849033e-24 1.093679999999999835e-05 1.451312892536889525e-24 9.431449999999999290e-06)
(7.549399999999999243e-06 -1.705839999999998392e-06 -6.815321867716855040e-25 1.066609999999999771e-05 6.259643393632357682e-25 9.100059999999998386e-06)
(8.072150000000001988e-06 -2.078469999999998415e-06 -1.081860920163739732e-25 1.067899999999999889e-05 6.769588198300890978e-26 9.378170000000002403e-06)
(8.524290000000000000e-06 -2.353219999999999469e-06 2.939214421551741934e-24 1.085219999999999920e-05 -1.454480515411866102e-24 9.687699999999998743e-06)
(1.776730000000000182e-05 -2.930810000000000235e-06 1.799488278145416063e-22 1.647670000000000100e-05 3.250701200587265316e-23 1.700449999999999957e-05)
(1.429400000000000070e-05 -3.480229999999997170e-06 -2.706939999999995403e-23 1.425499999999999989e-05 -8.525019999999995240e-23 1.422200000000000037e-05)
(9.425889999999998280e-06 -3.008450000000000393e-06 2.815021462729683911e-22 1.365519999999999930e-05 -1.961223379913956617e-22 1.155929999999999621e-05)
(9.181750000000002342e-06 -3.939760000000000545e-06 -5.835167078666418690e-22 2.095930000000000785e-05 8.859693756823558129e-22 1.497880000000000133e-05)
(9.597160000000002486e-06 -3.170139999999998501e-06 -1.291684764587162115e-22 2.018799999999999713e-05 2.165028853093686244e-22 1.487449999999999625e-05)
(9.046360000000000916e-06 -1.469699999999999032e-06 3.972008578491140569e-24 1.485959999999999915e-05 -7.779830398497985778e-24 1.198150000000000040e-05)
(8.231650000000001054e-06 -8.698109999999993704e-07 3.043359999999994586e-22 1.160300000000000055e-05 7.206309999999995596e-22 9.921199999999999133e-06)
(7.658809999999999268e-06 -4.561620000000002435e-07 1.142009999999997535e-21 9.644999999999999982e-06 2.221050000000003461e-21 8.649939999999997688e-06)
(7.452730000000001064e-06 -1.416909999999995977e-07 3.464769999999990996e-21 8.782459999999998242e-06 4.192599999999984736e-21 8.115829999999999849e-06)
(7.620890000000000315e-06 -3.095869999999998327e-08 -1.584069999999998966e-22 8.825260000000000610e-06 4.357189999999968075e-23 8.221459999999999717e-06)
(8.071890000000000740e-06 -1.962930000000000756e-07 5.733459999999997171e-22 9.664919999999999276e-06 1.342890000000000808e-21 8.872450000000000069e-06)
(8.687739999999999257e-06 -8.811139999999996669e-07 -1.735286090417049393e-22 1.109809999999999967e-05 2.366632367395453528e-22 9.896420000000000363e-06)
(9.043640000000003761e-06 -1.645129999999997368e-06 -4.171979610960901975e-24 1.262449999999999746e-05 4.552352216098144048e-24 1.082940000000000003e-05)
(9.007190000000001763e-06 -2.096239999999999347e-06 9.086739966647341732e-25 1.309989999999999802e-05 -8.877787973373041566e-25 1.105189999999999832e-05)
(8.760140000000000461e-06 -2.513920000000000319e-06 6.715394258898303092e-24 1.279169999999999986e-05 -5.398930285189931613e-24 1.077060000000000154e-05)
(9.185949999999999693e-06 -2.786669999999999105e-06 -1.360918392875636112e-25 1.274699999999999840e-05 8.674970406136816807e-26 1.097039999999999918e-05)
(9.591920000000000144e-06 -2.990089999999997997e-06 -1.196365642860003104e-24 1.287729999999999782e-05 6.596129124944057427e-25 1.122869999999999805e-05)
(2.152049999999999496e-05 -2.874039999999993620e-07 6.993757906855236041e-24 1.862930000000000475e-05 3.186236112674797877e-23 1.993020000000000105e-05)
(1.999320000000000028e-05 -3.321660000000000906e-06 2.035389999999999309e-21 1.480169999999999925e-05 -3.409659999999992473e-22 1.736160000000000332e-05)
(1.345560000000000378e-05 -5.172540000000001132e-06 -1.530278682048245773e-21 1.609550000000000200e-05 3.761369689774882244e-22 1.482400000000000240e-05)
(1.141189999999999826e-05 -5.739460000000000441e-06 -4.833404033133657347e-23 2.296129999999999986e-05 4.983630750491514903e-23 1.707430000000000015e-05)
(1.101619999999999797e-05 -5.819760000000000333e-06 6.511951671029552774e-22 2.558139999999999871e-05 -8.193790370353024072e-22 1.825890000000000233e-05)
(1.014259999999999671e-05 -3.601290000000000294e-06 -2.529147860213740420e-22 2.021770000000000126e-05 3.513970818413965283e-22 1.521429999999999933e-05)
(9.081980000000000754e-06 -2.134500000000000062e-06 9.659000000000000063e-22 1.571439999999999645e-05 1.003400000000000499e-21 1.241739999999999905e-05)
(8.381700000000003115e-06 -1.288529999999998529e-06 2.749829999999992691e-21 1.280899999999999883e-05 1.678909999999995593e-21 1.059309999999999688e-05)
(8.132049999999999500e-06 -7.770310000000005739e-07 -1.723090000000002865e-21 1.133590000000000272e-05 -1.722700000000000696e-21 9.727070000000003416e-06)
(8.342690000000001603e-06 -6.467569999999999726e-07 7.436979365449620890e-24 1.107890000000000162e-05 -1.581129935440416641e-23 9.703880000000000678e-06)
(8.915350000000002656e-06 -9.531409999999989394e-07 -2.366239999999988745e-22 1.184189999999999753e-05 -1.045019999999999597e-21 1.038399999999999917e-05)
(9.747419999999998910e-06 -1.896559999999999084e-06 -7.585050324916034316e-24 1.326869999999999715e-05 7.044103299893341609e-24 1.150739999999999929e-05)
(1.016480000000000303e-05 -2.820090000000000049e-06 1.167578640592256611e-23 1.488640000000000201e-05 -9.798619287791188712e-24 1.251970000000000144e-05)
(1.022600000000000170e-05 -3.242099999999999418e-06 -1.141225910988335385e-24 1.534230000000000047e-05 9.001315507881461751e-25 1.278510000000000402e-05)
(1.010759999999999958e-05 -3.527259999999998989e-06 -1.039947436758877642e-23 1.504599999999999791e-05 7.299486836134590674e-24 1.257020000000000206e-05)
(1.039980000000000163e-05 -3.684239999999997950e-06 -1.003852930286068401e-24 1.491239999999999803e-05 6.121453123474821580e-25 1.266530000000000052e-05)
(1.073569999999999955e-05 -3.814780000000000600e-06 2.818127457271670389e-24 1.495929999999999923e-05 -1.566044003745472419e-24 1.283949999999999455e-05)
(2.463799999999999687e-05 3.058989999999997456e-06 9.969945008082407254e-24 2.037370000000000790e-05 -6.461812125399653886e-24 2.235199999999999538e-05)
(2.588800000000000693e-05 -1.827750000000000839e-06 -3.002100000000001172e-21 1.422539999999999936e-05 5.662009999999970643e-22 2.006960000000000178e-05)
(1.864320000000000473e-05 -6.972719999999996490e-06 -7.631346296819969999e-23 1.634280000000000216e-05 -1.426025374517829651e-23 1.765199999999999972e-05)
(1.419469999999999811e-05 -7.499929999999998681e-06 5.935658689491834340e-22 2.313180000000000441e-05 -3.626030137322008208e-22 1.855269999999999942e-05)
(1.318800000000000316e-05 -8.087649999999993623e-06 -1.648429999999998779e-21 2.808399999999999403e-05 -5.638249999999994794e-22 2.055759999999999779e-05)
(1.201310000000000023e-05 -6.443419999999998864e-06 6.873100000000000725e-22 2.553149999999999772e-05 8.504830000000004842e-22 1.880129999999999904e-05)
(1.040339999999999936e-05 -4.325259999999999649e-06 1.419639999999998330e-21 2.075250000000000502e-05 1.477500000000002105e-21 1.561229999999999958e-05)
(9.371290000000000531e-06 -2.793679999999998636e-06 -2.630449999999998903e-21 1.684219999999999945e-05 -2.852179999999998981e-21 1.312359999999999747e-05)
(9.002829999999999996e-06 -1.900419999999999755e-06 -3.596889999999994975e-22 1.455409999999999674e-05 -6.300189999999993129e-22 1.177239999999999591e-05)
(9.202609999999999632e-06 -1.630740000000000374e-06 2.721939999999997058e-22 1.385229999999999949e-05 7.030760000000002729e-22 1.151340000000000059e-05)
(9.872050000000001476e-06 -2.037689999999999289e-06 -1.335099379925536396e-23 1.445830000000000013e-05 1.498063807753753301e-23 1.217190000000000115e-05)
(1.097010000000000191e-05 -3.214289999999998324e-06 -1.178091045072514845e-23 1.577370000000000112e-05 8.845189490767233238e-24 1.336019999999999958e-05)
(1.149919999999999825e-05 -4.236759999999999565e-06 4.300925998509028879e-23 1.732020000000000063e-05 -2.958346160383417672e-23 1.440600000000000065e-05)
(1.168170000000000201e-05 -4.602679999999998596e-06 -8.444465898382101442e-24 1.770040000000000082e-05 5.516896262863677992e-24 1.469340000000000064e-05)
(1.165990000000000165e-05 -4.776739999999996384e-06 -1.045287912560680726e-23 1.743399999999999605e-05 6.342869201904959375e-24 1.453559999999999852e-05)
(1.180099999999999933e-05 -4.801249999999999136e-06 -5.538113014867432800e-24 1.719950000000000024e-05 3.095502811301663652e-24 1.451580000000000085e-05)
(1.205960000000000224e-05 -4.855859999999998431e-06 -1.236416500240984830e-23 1.713569999999999926e-05 6.494472858275572220e-24 1.458510000000000542e-05)
(2.709899999999999923e-05 6.004669999999996501e-06 -1.228647281649939246e-23 2.182260000000000008e-05 5.098068599255896462e-24 2.431260000000000165e-05)
(3.073390000000000063e-05 1.566969999999999373e-07 -5.205177881719318889e-24 1.396390000000000195e-05 2.787433460982764271e-22 2.235519999999998884e-05)
(2.427319999999999996e-05 -7.780010000000000750e-06 -6.152827607771345392e-24 1.554040000000000456e-05 -3.667571707026055965e-24 2.016839999999999819e-05)
(1.779099999999999619e-05 -9.059019999999997166e-06 -2.154837210694511305e-22 2.236690000000000095e-05 5.646663261300465427e-23 1.999200000000000104e-05)
(1.583910000000000222e-05 -9.600400000000000443e-06 2.456818837312118075e-21 2.779630000000000016e-05 -1.558530364388740006e-21 2.170630000000000256e-05)
(1.463370000000000526e-05 -9.071539999999997175e-06 -1.228269999999999158e-21 2.872719999999999492e-05 -7.983240000000005234e-22 2.167720000000000313e-05)
(1.276689999999999799e-05 -7.218550000000001385e-06 -1.255860000000000039e-21 2.582389999999999851e-05 -1.247750000000001106e-21 1.933279999999999556e-05)
(1.114850000000000346e-05 -5.251700000000000049e-06 -1.960899999999999221e-21 2.176309999999999497e-05 -1.994239999999999526e-21 1.648669999999999921e-05)
(1.037279999999999833e-05 -3.868850000000000236e-06 8.833840000000000952e-22 1.864269999999999686e-05 1.125380000000000282e-21 1.452669999999999934e-05)
(1.042800000000000248e-05 -3.239229999999998546e-06 8.473287868581051567e-23 1.730229999999999865e-05 -9.003369672767162338e-23 1.386040000000000201e-05)
(1.110439999999999993e-05 -3.597890000000000039e-06 -2.732269202136778957e-22 1.761119999999999835e-05 2.456502143843128357e-22 1.437649999999999864e-05)
(1.248779999999999926e-05 -4.893920000000001248e-06 5.684763030058418807e-23 1.862740000000000058e-05 -3.591477785419060377e-23 1.553580000000000125e-05)
(1.315820000000000219e-05 -5.874709999999999696e-06 -4.393991312306366744e-23 1.987219999999999923e-05 2.509747604967894801e-23 1.651669999999999723e-05)
(1.345209999999999950e-05 -6.203899999999998318e-06 -8.306007190599761201e-23 2.013710000000000071e-05 4.475596271974642513e-23 1.679419999999999584e-05)
(1.347379999999999964e-05 -6.272049999999999521e-06 1.000071400669634849e-23 1.989780000000000455e-05 -5.147262004575683591e-24 1.666939999999999663e-05)
(1.346070000000000311e-05 -6.154970000000001652e-06 1.332137388588962733e-23 1.956499999999999987e-05 -6.550239318215474078e-24 1.653810000000000349e-05)
(1.365040000000000232e-05 -6.131840000000001417e-06 -3.159625533887209470e-24 1.937660000000000351e-05 1.487000590303607846e-24 1.649210000000000427e-05)
(2.878109999999999452e-05 8.182989999999995323e-06 8.948565778788643081e-24 2.286200000000000236e-05 -3.098660466782360435e-24 2.569480000000000003e-05)
(3.385320000000000310e-05 2.027959999999999638e-06 2.339288048606680801e-25 1.439510000000000216e-05 -1.117698736376897813e-24 2.408439999999999933e-05)
(2.932529999999999518e-05 -7.443249999999996879e-06 1.614282942271703223e-22 1.460019999999999957e-05 1.665628724196158793e-22 2.227110000000000095e-05)
(2.197359999999999575e-05 -1.006319999999999710e-05 -3.055309999999998634e-21 2.107210000000000447e-05 4.972980000000006818e-22 2.148999999999999923e-05)
(1.879420000000000041e-05 -1.045570000000000223e-05 -3.487800000000001067e-21 2.609510000000000364e-05 2.152020000000000634e-21 2.232340000000000043e-05)
(1.747680000000000181e-05 -1.061199999999999767e-05 1.621134213539478811e-21 2.883499999999999751e-05 -8.744809007009725299e-22 2.311059999999999859e-05)
(1.589860000000000055e-05 -9.804810000000000405e-06 -6.752577362122023390e-22 2.879369999999999844e-05 4.431597097674824849e-22 2.235900000000000056e-05)
(1.410999999999999874e-05 -8.244829999999999799e-06 1.575048900970075015e-21 2.639720000000000198e-05 -1.169255328820856788e-21 2.027660000000000166e-05)
(1.290100000000000235e-05 -6.746830000000001606e-06 8.575483030379280231e-22 2.332610000000000017e-05 -6.598814295675150272e-22 1.813449999999999722e-05)
(1.248829999999999697e-05 -5.786030000000001420e-06 -1.081600000000000558e-21 2.138149999999999849e-05 -8.650089999999997786e-22 1.695819999999999969e-05)
(1.294400000000000007e-05 -5.790569999999997144e-06 3.936925871165741505e-22 2.108479999999999504e-05 -2.710789424630709405e-22 1.709829999999999518e-05)
(1.448640000000000076e-05 -6.927560000000000975e-06 -5.209521877778220593e-23 2.160749999999999937e-05 2.696592743081319185e-23 1.802210000000000487e-05)
(1.521800000000000066e-05 -7.732409999999999715e-06 9.536305254696093161e-24 2.237099999999999638e-05 -4.404194251891766007e-24 1.879980000000000252e-05)
(1.555260000000000420e-05 -8.022919999999997040e-06 2.069614350093783116e-23 2.251380000000000118e-05 -8.977361863400685769e-24 1.903370000000000040e-05)
(1.558579999999999569e-05 -7.976249999999996689e-06 1.433546875245753238e-23 2.228330000000000059e-05 -6.061547416241534938e-24 1.891089999999999880e-05)
(1.541140000000000291e-05 -7.721179999999996775e-06 2.831133609285255070e-23 2.187720000000000121e-05 -1.170380974151008736e-23 1.868490000000000130e-05)
(1.555850000000000020e-05 -7.621969999999998787e-06 3.702790590523764382e-23 2.156810000000000107e-05 -1.477925541123164822e-23 1.852649999999999957e-05)
(2.944049999999999705e-05 9.364709999999995928e-06 -2.860931995133198981e-24 2.340109999999999521e-05 8.984945305090501373e-25 2.631799999999999095e-05)
(3.490809999999999194e-05 3.360929999999999007e-06 -1.241391059162845733e-23 1.540029999999999890e-05 3.575005923673982383e-23 2.507669999999999320e-05)
(3.287059999999999662e-05 -6.136989999999999157e-06 -3.726821508478666703e-22 1.404050000000000389e-05 -5.901847151303765981e-22 2.375010000000000491e-05)
(2.609319999999999270e-05 -1.016209999999999542e-05 7.009929999999997499e-21 1.950699999999999806e-05 -2.127769999999999664e-21 2.283349999999999407e-05)
(2.195090000000000357e-05 -1.078870000000000226e-05 4.762159999999999268e-21 2.403450000000000172e-05 -2.559170000000001012e-21 2.289130000000000562e-05)
(2.013789999999999908e-05 -1.101430000000000227e-05 -2.409719999999999265e-21 2.694710000000000158e-05 2.096429999999998734e-21 2.347820000000000842e-05)
(1.886200000000000000e-05 -1.101709999999999994e-05 1.495288022839880788e-21 2.856329999999999807e-05 -6.596612024550809483e-22 2.370299999999999651e-05)
(1.754460000000000478e-05 -1.048260000000000192e-05 9.707239999999996797e-22 2.850180000000000213e-05 2.432579999999999132e-21 2.302210000000000104e-05)
(1.650120000000000051e-05 -9.613519999999998379e-06 -1.044379999999999481e-21 2.694970000000000050e-05 -1.362569999999999382e-21 2.171089999999999910e-05)
(1.592580000000000260e-05 -8.857679999999998514e-06 5.558066719395955815e-22 2.519319999999999793e-05 -2.899692908564031285e-22 2.057209999999999570e-05)
(1.592990000000000142e-05 -8.488040000000001830e-06 -6.882346519717795694e-23 2.419540000000000216e-05 3.249769241954888452e-23 2.018659999999999744e-05)
(1.711600000000000350e-05 -9.156499999999997798e-06 6.625290868869113268e-23 2.416080000000000083e-05 -2.560253466128172233e-23 2.062240000000000774e-05)
(1.767629999999999879e-05 -9.712180000000000243e-06 2.494969124179832958e-22 2.445369999999999933e-05 -8.662888930865349569e-23 2.108149999999999797e-05)
(1.794380000000000259e-05 -9.897259999999996445e-06 -1.104388261021372973e-22 2.449289999999999719e-05 3.652073539301005701e-23 2.121999999999999334e-05)
(1.794670000000000217e-05 -9.745999999999997829e-06 -1.418614910837837785e-22 2.427830000000000436e-05 4.659164436035320923e-23 2.107739999999999915e-05)
(1.759230000000000434e-05 -9.379459999999994389e-06 8.572773287715648894e-23 2.386059999999999649e-05 -2.807195431981909848e-23 2.079010000000000276e-05)
(1.774120000000000219e-05 -9.215660000000001141e-06 -4.421092786488725667e-23 2.346289999999999858e-05 1.402856881021298763e-23 2.053940000000000193e-05)
(2.879489999999999768e-05 9.421379999999997877e-06 1.213005916594274824e-21 2.341980000000000233e-05 -3.331581899756913775e-22 2.600700000000000358e-05)
(3.385419999999999174e-05 3.901359999999998507e-06 2.321199999999999455e-21 1.660360000000000481e-05 -3.861140000000076587e-23 2.515689999999999626e-05)
(3.418439999999999749e-05 -4.283269999999999734e-06 4.759516409255695463e-22 1.408290000000000030e-05 1.143340817874908393e-21 2.436660000000000486e-05)
(2.922339999999999874e-05 -9.203110000000002422e-06 -6.235380000000002456e-21 1.794239999999999952e-05 2.136999999999999458e-21 2.366539999999999876e-05)
(2.493999999999999500e-05 -1.049519999999999567e-05 -1.071549999999999358e-21 2.192480000000000394e-05 1.468029999999999023e-21 2.336930000000000002e-05)
(2.254349999999999516e-05 -1.072579999999999817e-05 2.624960000000000173e-21 2.454189999999999622e-05 -1.894929999999999522e-21 2.348229999999999708e-05)
(2.115950000000000637e-05 -1.088219999999999891e-05 -5.351190000000004537e-22 2.634570000000000087e-05 1.047280000000000041e-21 2.373849999999999981e-05)
(2.019619999999999478e-05 -1.098949999999999533e-05 -6.400949562541816302e-22 2.741159999999999349e-05 2.100527405083912691e-22 2.380529999999999720e-05)
(1.965640000000000039e-05 -1.095979999999999966e-05 2.247108014725904303e-22 2.747510000000000059e-05 -8.065733691499979777e-23 2.354139999999999453e-05)
(1.966069999999999965e-05 -1.088370000000000051e-05 4.693377464284994332e-23 2.674669999999999584e-05 -1.558405797326767910e-23 2.312939999999999915e-05)
(1.962600000000000488e-05 -1.081010000000000175e-05 5.687568434440541844e-23 2.585880000000000389e-05 -1.608924739581384662e-23 2.280100000000000074e-05)
(2.020999999999999793e-05 -1.100999999999999962e-05 -5.982907420355700810e-23 2.539149999999999567e-05 1.417744480755951298e-23 2.278239999999999383e-05)
(2.032489999999999915e-05 -1.132309999999999667e-05 3.024205398119423936e-23 2.540290000000000373e-05 -6.669914733407897117e-24 2.290650000000000506e-05)
(2.038270000000000392e-05 -1.141709999999999611e-05 3.212532475381419201e-23 2.546139999999999986e-05 -7.116635519514521712e-24 2.293220000000000043e-05)
(2.030939999999999905e-05 -1.123049999999999691e-05 5.962259092444400932e-23 2.535489999999999334e-05 -1.365312584008348898e-23 2.278229999999999700e-05)
(1.975439999999999843e-05 -1.082919999999999959e-05 -2.144244247162684292e-22 2.503649999999999992e-05 5.038635104863154527e-23 2.249170000000000016e-05)
(1.996369999999999997e-05 -1.063490000000000045e-05 7.290545679724509920e-23 2.461949999999999696e-05 -1.665745287165333436e-23 2.219029999999999996e-05)
(2.668400000000000405e-05 8.357149999999998412e-06 -1.079073290019287283e-21 2.289069999999999752e-05 2.286373734717004542e-22 2.466100000000000326e-05)
(3.093059999999999148e-05 3.621189999999999460e-06 -2.041340000000000626e-21 1.751020000000000050e-05 2.125909999999998211e-22 2.420049999999999640e-05)