/*--------------------------------*- C++ -*----------------------------------*\
| =========                 |                                                 |
| \\      /  F ield         | OpenFOAM: The Open Source CFD Toolbox           |
|  \\    /   O peration     | Version:  2.3.x                                 |
|   \\  /    A nd           | Web:      www.OpenFOAM.org                      |
|    \\/     M anipulation  |                                                 |
\*---------------------------------------------------------------------------*/
FoamFile
{
    version     2.0;
    format      ascii;
    class       volVectorField;
    location    "0";
    object      U;
}
// * * * * * * * * * * * * * * * * * * * * * * * * * * * * * * * * * * * * * //

dimensions      [0 1 -1 0 0 0 0];

internalField   nonuniform List<vector> 
3000
(
(0.00374266 -0.000128102 2.51139e-24)
(0.00253859 -0.000788579 -2.48683e-24)
(-0.000253859 -2.30797e-05 0)
(-0.00133401 0.000850568 1.00527e-18)
(-0.000868476 0.000588223 0)
(-0.000678427 0.000465446 -2.33573e-21)
(-0.000663629 0.000458235 -1.96355e-18)
(-0.00064495 0.000429308 0)
(-0.000631425 0.000358792 -2.3154e-18)
(-0.000626817 0.000254389 1.20281e-18)
(-0.000632641 0.000134401 1.1848e-18)
(-0.000611639 1.85786e-05 -1.50195e-19)
(-0.00043971 -4.1516e-06 0)
(-0.000196792 -1.64152e-05 0)
(0.000160801 -4.32281e-05 0)
(0.000417539 -1.75557e-05 -6.43833e-22)
(0.00057372 -9.50596e-06 0)
(0.0112207 -0.000313559 0)
(0.00812973 -0.00232937 0)
(0.00114208 -0.000631835 3.52755e-19)
(-0.00241254 0.00199461 -1.55943e-18)
(-0.00176973 0.00142465 1.7195e-18)
(-0.00146466 0.00114453 -1.77944e-18)
(-0.00150466 0.00115495 1.92266e-18)
(-0.00150021 0.00108679 1.98319e-21)
(-0.00146595 0.000886749 1.94608e-18)
(-0.00140423 0.000591172 -9.13063e-19)
(-0.00130695 0.00027497 8.28624e-19)
(-0.001083 7.60992e-06 4.54387e-20)
(-0.00050775 -3.52181e-05 1.03233e-21)
(9.13446e-05 -3.91388e-05 3.02005e-21)
(0.000476183 -1.3286e-05 0)
(0.000684885 -2.25438e-05 -9.64521e-22)
(0.00111134 -2.27721e-05 1.66042e-21)
(0.0183072 -0.000319289 0)
(0.0141788 -0.00361111 5.37043e-21)
(0.00467915 -0.00242313 -3.03527e-19)
(-0.00168284 0.00154965 6.01514e-22)
(-0.00177878 0.00141328 -1.09729e-18)
(-0.00156401 0.00121644 -4.81071e-22)
(-0.0017174 0.00132323 -2.19926e-18)
(-0.00173953 0.00125413 1.07496e-21)
(-0.00161597 0.000962325 -2.17682e-18)
(-0.0013615 0.000552635 0)
(-0.00102019 0.000186513 -4.70866e-19)
(-0.000565055 -5.3172e-05 0)
(0.00019461 -8.96504e-05 0)
(0.000624896 -7.03898e-05 -1.57729e-21)
(0.000755249 -5.8824e-05 -1.63632e-21)
(0.000820349 -4.54055e-05 4.51826e-22)
(0.00108366 -5.35527e-05 -3.14092e-21)
(0.0226185 -0.000284777 -1.71623e-20)
(0.0188649 -0.00436799 -3.3957e-21)
(0.00906583 -0.00442073 2.19271e-19)
(0.00110624 -0.000334789 5.79368e-22)
(-0.000847529 0.000697637 -3.199e-22)
(-0.000941653 0.000742436 1.43412e-21)
(-0.00125139 0.000986251 7.31947e-19)
(-0.00133675 0.00095557 0)
(-0.0011771 0.000667714 1.48883e-18)
(-0.000818538 0.000277857 1.39933e-21)
(-0.000377628 -8.22006e-06 3.44709e-19)
(6.34796e-05 -0.000139445 2.60658e-21)
(0.000687025 -0.00014452 -1.04455e-21)
(0.000940888 -8.82501e-05 0)
(0.00097528 -3.85585e-05 7.69776e-22)
(0.000997332 -5.09626e-05 7.77416e-22)
(0.00113116 -7.33173e-05 1.71248e-21)
(0.0236205 -0.00023203 1.01015e-20)
(0.0210321 -0.0044508 4.12781e-24)
(0.0124758 -0.00564474 2.58915e-20)
(0.00404416 -0.00204787 -5.55046e-19)
(0.000542189 -0.000178658 -1.29456e-21)
(-0.000119014 0.000180501 1.11535e-21)
(-0.000575474 0.000524275 0)
(-0.00075849 0.000546289 6.21736e-19)
(-0.000639086 0.00030031 -6.27699e-19)
(-0.000256738 -2.85098e-05 2.46625e-21)
(0.00018798 -0.000191719 -3.05786e-19)
(0.000451331 -0.000213523 0)
(0.00085153 -0.000196397 1.94605e-21)
(0.000999395 -0.000102254 5.24938e-21)
(0.00105871 -6.12017e-05 1.55408e-21)
(0.00112207 -6.25521e-05 -1.50205e-21)
(0.00121712 -9.30626e-05 0)
(0.0234797 -0.000121447 2.04461e-23)
(0.0216521 -0.00403104 3.53125e-20)
(0.0146511 -0.00590481 -1.10633e-19)
(0.00675396 -0.0032184 4.18774e-19)
(0.00206353 -0.000943116 1.3654e-21)
(0.000694398 -0.00028032 -2.10694e-21)
(0.00017436 5.81697e-05 5.74104e-19)
(-0.000119071 0.000104629 -1.17767e-18)
(-0.000105457 -6.14378e-05 4.70201e-21)
(0.000232984 -0.000309548 -9.21593e-21)
(0.000550377 -0.000330188 -9.36991e-23)
(0.000574645 -0.000257989 4.32876e-21)
(0.00070662 -0.000224766 0)
(0.000769801 -0.000116965 -1.0353e-20)
(0.000957888 -6.21028e-05 1.52618e-21)
(0.00112381 -7.5566e-05 -2.6758e-23)
(0.00126988 -0.000116046 1.55425e-21)
(0.0237936 8.21587e-06 3.88445e-23)
(0.0221067 -0.00349218 -2.65349e-20)
(0.0162553 -0.0056032 0)
(0.0092877 -0.00388593 0)
(0.00400354 -0.00163977 -4.8466e-19)
(0.0014993 -0.000581432 4.44463e-21)
(0.000684462 -0.000202079 -5.71505e-19)
(0.00043645 -0.00019829 -3.98377e-21)
(0.000310146 -0.000344046 -4.7687e-21)
(0.000499499 -0.000495073 8.93235e-21)
(0.000676826 -0.000351155 0)
(0.000404406 -0.000230035 2.58416e-20)
(0.000290804 -0.000223647 7.30776e-21)
(0.000355955 -0.000139962 -1.75653e-20)
(0.000758464 -0.000129662 3.24503e-21)
(0.00104998 -0.000124051 -6.33836e-21)
(0.00131042 -0.000166302 -3.1693e-21)
(0.0244584 0.000204838 -3.98644e-23)
(0.0228574 -0.00294215 4.51847e-23)
(0.017821 -0.00509285 -2.9721e-22)
(0.0117679 -0.00417917 -7.79316e-22)
(0.00654169 -0.00231414 8.19866e-19)
(0.00307436 -0.00101649 -5.1479e-19)
(0.0011762 -0.000316438 4.23919e-21)
(0.000439549 -0.00020082 8.93112e-21)
(0.00025368 -0.000261434 2.79115e-19)
(0.00045973 -0.0004907 -2.83737e-19)
(0.000469222 -0.000301202 0)
(-0.000139422 -0.000114857 -2.64554e-20)
(-0.000134967 -0.000187981 -3.80455e-20)
(0.000164007 -0.000231189 -7.34008e-21)
(0.000732762 -0.00024022 1.371e-20)
(0.00109135 -0.000212149 5.9875e-23)
(0.00149166 -0.00026065 3.2745e-21)
(0.0251462 0.00042137 0)
(0.0237882 -0.00235617 0)
(0.0195313 -0.00447821 -2.64663e-22)
(0.0143319 -0.00420868 -2.0831e-19)
(0.00955798 -0.00287226 -6.63851e-19)
(0.0057942 -0.00164812 8.7024e-19)
(0.00299877 -0.000724423 -8.68657e-21)
(0.00107598 -0.000170729 1.17007e-18)
(-0.00027596 -0.0001073 -6.33931e-19)
(-0.000100797 -0.0003736 3.20197e-19)
(-0.000340371 0.000180924 0)
(-0.000451146 3.95951e-05 0)
(0.000130788 -0.000361755 3.11301e-20)
(0.000543402 -0.000426681 -1.64219e-22)
(0.00114736 -0.000435702 1.39665e-20)
(0.00152713 -0.000366201 6.86187e-21)
(0.00204291 -0.000421947 6.77959e-21)
(0.0257539 0.000644169 0)
(0.0247224 -0.00172541 9.61648e-23)
(0.0213298 -0.00375355 3.88791e-22)
(0.0169964 -0.0040066 3.41402e-19)
(0.0128507 -0.00321914 5.24993e-19)
(0.00929748 -0.00227226 -6.98805e-19)
(0.00629564 -0.00141103 4.24543e-19)
(0.00378751 -0.000678805 -4.90458e-19)
(0.00183555 -0.000311329 2.80271e-19)
(3.43419e-05 -0.000186783 0)
(-0.000314778 -0.000101966 0)
(0.000687965 -0.000487369 6.99749e-20)
(0.00123861 -0.000663324 3.07412e-20)
(0.00169658 -0.000688038 -7.25689e-20)
(0.0022299 -0.000671455 -2.56137e-22)
(0.00259838 -0.00058378 1.33669e-20)
(0.003176 -0.000647278 -2.64859e-20)
(0.026288 0.000841444 1.35198e-20)
(0.0255753 -0.00109642 2.85857e-20)
(0.0230801 -0.00292923 9.29641e-22)
(0.0196618 -0.0035632 -2.21091e-19)
(0.0162309 -0.00328041 -1.00628e-19)
(0.013147 -0.00268826 4.05914e-19)
(0.0103791 -0.00205145 -3.24662e-19)
(0.0078831 -0.0014326 0)
(0.00576802 -0.000946569 0)
(0.0041822 -0.000676468 6.03177e-20)
(0.00296061 -0.000750945 -3.01824e-20)
(0.00318145 -0.00106229 -2.90986e-20)
(0.00354565 -0.00109626 2.77155e-20)
(0.00385537 -0.00105124 2.24245e-22)
(0.00425481 -0.000989085 0)
(0.00454939 -0.00088633 -3.78379e-20)
(0.00511768 -0.000932947 3.65852e-20)
(0.026789 0.000988526 -1.17767e-20)
(0.0263452 -0.000533611 -2.61514e-20)
(0.0246693 -0.00207239 -5.64234e-20)
(0.0221721 -0.00290258 6.07498e-20)
(0.0195051 -0.00302286 -7.06898e-20)
(0.0170015 -0.00278149 -1.00765e-19)
(0.014687 -0.00241199 1.62522e-20)
(0.012531 -0.00199464 -2.03067e-19)
(0.0106135 -0.00161126 -1.14719e-19)
(0.00908129 -0.00134109 1.68705e-19)
(0.00807614 -0.00126286 0)
(0.00759552 -0.00138413 7.14493e-22)
(0.00749041 -0.00142909 -4.45638e-20)
(0.00745178 -0.0013801 -8.95739e-20)
(0.00756003 -0.00130613 8.76704e-20)
(0.00765156 -0.00121263 1.14634e-20)
(0.00810619 -0.0012261 -6.27243e-20)
(0.0273083 0.00107138 0)
(0.0270808 -8.47878e-05 -4.42105e-22)
(0.026062 -0.00128384 5.03281e-20)
(0.0243993 -0.00212276 -7.50461e-21)
(0.022489 -0.00249284 7.89649e-21)
(0.0205997 -0.00253941 0)
(0.0188095 -0.00242106 2.23232e-20)
(0.017124 -0.002216 1.22282e-19)
(0.0155968 -0.00197491 2.36703e-21)
(0.0143199 -0.00175375 -1.72331e-19)
(0.0133755 -0.00160863 0)
(0.0128441 -0.00154723 -1.35025e-19)
(0.0124399 -0.00152695 1.02346e-19)
(0.0121513 -0.00151073 3.52658e-20)
(0.0120059 -0.0014822 -6.80356e-20)
(0.0118733 -0.00143466 -3.37554e-20)
(0.0121559 -0.00142318 3.33872e-20)
(0.0279112 0.00104739 -1.52968e-20)
(0.0278505 0.000206774 1.8064e-21)
(0.0273061 -0.000661238 3.31571e-21)
(0.0263108 -0.00136802 5.08427e-20)
(0.0250721 -0.00181467 0)
(0.0237699 -0.00203299 3.05976e-20)
(0.0224965 -0.00210167 -3.14028e-20)
(0.0212874 -0.0020768 -1.04673e-19)
(0.0201789 -0.00199011 1.83853e-19)
(0.0192229 -0.00187095 0)
(0.0184591 -0.00174715 -8.53738e-20)
(0.0179647 -0.00163921 4.33577e-20)
(0.0175961 -0.00156842 1.18322e-19)
(0.017252 -0.00153012 2.47036e-20)
(0.0169645 -0.00150783 7.64168e-20)
(0.0166987 -0.00148889 -3.77488e-20)
(0.0168114 -0.00145521 -2.48136e-20)
(0.0286561 0.000927654 1.16602e-20)
(0.0287144 0.000346499 0)
(0.0284941 -0.000252827 -6.26674e-21)
(0.0279741 -0.000785899 -1.4457e-20)
(0.0272539 -0.00119152 0)
(0.0264404 -0.00145986 0)
(0.0256135 -0.00161821 0)
(0.0248167 -0.00169952 1.53975e-19)
(0.0240718 -0.00172548 -1.0441e-19)
(0.0233962 -0.00170977 5.48452e-20)
(0.0228027 -0.00166422 0)
(0.0223269 -0.00159815 3.04326e-20)
(0.0219245 -0.00152994 6.54868e-20)
(0.0215819 -0.00146438 -5.09092e-20)
(0.0213227 -0.00140479 -7.23733e-20)
(0.0210203 -0.00135999 1.38241e-19)
(0.0210206 -0.00129764 -5.32232e-20)
(0.000696852 -4.70753e-06 0)
(0.000790787 -1.99768e-06 0)
(0.000864786 -3.63739e-07 0)
(0.000922669 5.11577e-07 0)
(0.000969339 9.95969e-07 0)
(0.00100623 1.20206e-06 0)
(0.00103591 1.26411e-06 -8.2434e-23)
(0.0010594 1.22783e-06 8.40874e-23)
(0.00107774 1.14323e-06 8.66504e-23)
(0.00109183 1.02195e-06 -8.80845e-23)
(0.00110158 8.92001e-07 0)
(0.00110858 7.2686e-07 -3.67962e-22)
(0.00111083 5.87119e-07 3.72577e-22)
(0.00111226 3.42098e-07 0)
(0.00110649 2.3682e-07 0)
(0.00110292 -1.56842e-07 0)
(0.00148302 -1.93595e-05 0)
(0.00178481 -1.56966e-05 0)
(0.00203984 -1.24447e-05 0)
(0.00225503 -9.9644e-06 0)
(0.00244171 -7.89914e-06 0)
(0.00260228 -6.28446e-06 -2.02005e-22)
(0.00274189 -4.9536e-06 2.13403e-22)
(0.00286245 -3.87334e-06 0)
(0.00296601 -2.96258e-06 0)
(0.00305456 -2.20105e-06 2.53476e-22)
(0.00312798 -1.52166e-06 -2.64895e-22)
(0.0031897 -9.74566e-07 -5.577e-22)
(0.00323555 -3.53896e-07 5.79835e-22)
(0.00327343 -5.66242e-09 0)
(0.00328919 8.63294e-07 -1.25975e-21)
(0.00330316 8.44179e-07 2.60432e-21)
(0.00140539 -4.84762e-05 6.13047e-22)
(0.00173753 -4.2575e-05 -6.65915e-22)
(0.00207206 -3.73172e-05 3.64416e-22)
(0.0023947 -3.30757e-05 -3.86239e-22)
(0.00270647 -2.92718e-05 0)
(0.00299991 -2.58903e-05 0)
(0.00327489 -2.28055e-05 0)
(0.00352918 -1.99677e-05 0)
(0.00376216 -1.73291e-05 0)
(0.00397424 -1.48516e-05 0)
(0.00416375 -1.24955e-05 0)
(0.00433381 -1.026e-05 0)
(0.00447842 -7.91866e-06 -6.34619e-22)
(0.00460648 -5.81121e-06 6.60988e-22)
(0.00470054 -2.79935e-06 -1.38448e-21)
(0.00478146 -5.61153e-07 1.43491e-21)
(0.0013502 -7.567e-05 -4.76508e-22)
(0.00161222 -7.3642e-05 -6.23253e-24)
(0.00190707 -6.98362e-05 5.26509e-22)
(0.00221173 -6.60751e-05 0)
(0.00252464 -6.20096e-05 0)
(0.00283372 -5.77322e-05 0)
(0.00313618 -5.33632e-05 0)
(0.00342715 -4.89165e-05 0)
(0.00370398 -4.44851e-05 0)
(0.00396544 -4.00348e-05 0)
(0.00420824 -3.56377e-05 0)
(0.00443444 -3.11882e-05 0)
(0.0046365 -2.65551e-05 -8.09058e-22)
(0.00482338 -2.19411e-05 8.37107e-22)
(0.00497568 -1.59543e-05 0)
(0.00511503 -1.04801e-05 0)
(0.00139974 -0.000104223 0)
(0.00162479 -0.000108158 0)
(0.00189192 -0.000107881 0)
(0.00217205 -0.00010596 4.70769e-22)
(0.00246486 -0.000102672 -4.79918e-22)
(0.00275734 -9.81706e-05 0)
(0.00304694 -9.30091e-05 0)
(0.00332873 -8.7259e-05 0)
(0.00360004 -8.12239e-05 0)
(0.00385961 -7.48663e-05 0)
(0.00410394 -6.84062e-05 0)
(0.00433509 -6.15867e-05 0)
(0.0045449 -5.4502e-05 -1.22193e-21)
(0.00474296 -4.70369e-05 1.25229e-21)
(0.00490746 -3.77674e-05 0)
(0.00506465 -2.9131e-05 1.33069e-21)
(0.00148677 -0.000138344 0)
(0.00172813 -0.000149849 0)
(0.00200767 -0.000154213 0)
(0.00229408 -0.00015452 8.70564e-22)
(0.00258909 -0.000152205 -8.78433e-22)
(0.00288024 -0.000147441 0)
(0.00316573 -0.000141351 -2.30218e-22)
(0.00344126 -0.000134079 2.33313e-22)
(0.00370474 -0.000126182 2.39731e-22)
(0.00395526 -0.000117608 -2.43428e-22)
(0.00418971 -0.000108766 0)
(0.00441038 -9.91594e-05 -1.02138e-21)
(0.00460919 -8.92005e-05 1.03853e-21)
(0.00479633 -7.82057e-05 0)
(0.00494836 -6.50701e-05 0)
(0.00509492 -5.27665e-05 -2.22538e-21)
(0.001614 -0.000196231 -3.25741e-21)
(0.00191377 -0.000213078 0)
(0.00223678 -0.00022089 0)
(0.0025543 -0.000222016 -1.68499e-21)
(0.00287119 -0.000219297 8.35502e-22)
(0.00317728 -0.00021285 8.53671e-22)
(0.00347214 -0.000204433 0)
(0.00375266 -0.000194279 0)
(0.00401753 -0.000183191 0)
(0.0042663 -0.000171093 0)
(0.00449647 -0.000158583 0)
(0.00471027 -0.000144881 1.87572e-21)
(0.00490008 -0.000130733 -1.89692e-21)
(0.0050759 -0.000114741 1.937e-21)
(0.00521338 -9.60736e-05 -1.96092e-21)
(0.00534395 -7.76012e-05 4.00851e-21)
(0.00189135 -0.000294436 6.66646e-21)
(0.00225934 -0.000311761 -3.29482e-21)
(0.00263217 -0.000319177 3.33055e-21)
(0.00298606 -0.000317841 -4.96798e-21)
(0.00332894 -0.000312003 1.65768e-21)
(0.00365379 -0.00030151 0)
(0.00396166 -0.000288647 -4.23336e-22)
(0.00425086 -0.000273663 4.23864e-22)
(0.00452092 -0.000257523 4.30631e-22)
(0.0047719 -0.000240117 -4.32427e-22)
(0.00500193 -0.000222149 0)
(0.00521303 -0.000202528 0)
(0.0053983 -0.000182261 -3.59717e-21)
(0.00556704 -0.000159068 3.6249e-21)
(0.0056946 -0.00013229 0)
(0.00581418 -0.000104156 3.74145e-21)
(0.00250531 -0.000449355 0)
(0.00291702 -0.000459374 0)
(0.00331944 -0.000460387 0)
(0.00369376 -0.000451762 0)
(0.00404917 -0.000438732 0)
(0.0043816 -0.000420788 0)
(0.00469303 -0.000400431 0)
(0.00498296 -0.000377898 0)
(0.00525163 -0.00035418 0)
(0.00549945 -0.000329091 0)
(0.00572513 -0.000303302 0)
(0.00593038 -0.000275447 0)
(0.0061091 -0.000246557 0)
(0.00626977 -0.000213567 0)
(0.00638777 -0.000175604 0)
(0.00649952 -0.000133909 0)
(0.00365307 -0.000661586 -1.32559e-20)
(0.00406741 -0.000657729 1.28866e-20)
(0.00446429 -0.000646694 6.45066e-21)
(0.00482953 -0.000626137 -1.27391e-20)
(0.00517184 -0.000601718 9.49661e-21)
(0.0054896 -0.00057288 -3.14963e-21)
(0.00578495 -0.000541903 0)
(0.00605826 -0.000509051 0)
(0.0063101 -0.000475138 0)
(0.006541 -0.000439909 0)
(0.00675009 -0.000403794 0)
(0.00693865 -0.000365255 6.42346e-21)
(0.00710138 -0.000324993 -6.42533e-21)
(0.00724591 -0.000279349 -6.49549e-21)
(0.00734766 -0.0002269 6.51095e-21)
(0.007448 -0.000167503 1.3199e-20)
(0.00555114 -0.000925582 0)
(0.00591552 -0.000899405 -1.20744e-20)
(0.00626079 -0.000870162 -1.28506e-22)
(0.00657734 -0.000833397 1.17297e-20)
(0.00687165 -0.000793665 0)
(0.00714388 -0.000750821 0)
(0.00739565 -0.000706404 0)
(0.00762769 -0.000660716 0)
(0.0078405 -0.000614205 0)
(0.00803447 -0.000566536 0)
(0.00820891 -0.000517723 0)
(0.00836451 -0.00046616 1.17282e-20)
(0.0084968 -0.000411849 -1.17074e-20)
(0.00861255 -0.000350879 0)
(0.00868738 -0.000280968 0)
(0.00876929 -0.000200348 0)
(0.00842127 -0.00119808 2.07913e-20)
(0.00867281 -0.00114938 -2.08204e-20)
(0.00891103 -0.00110042 2.04481e-20)
(0.00913119 -0.00104697 -1.0272e-20)
(0.0093357 -0.000991241 1.01382e-20)
(0.00952503 -0.00093373 -5.09728e-21)
(0.00969987 -0.000875269 7.5924e-21)
(0.00986058 -0.000816055 -2.52287e-21)
(0.0100073 -0.00075616 -2.53837e-21)
(0.0101399 -0.000695108 7.60159e-21)
(0.0102577 -0.000632428 -5.0542e-21)
(0.0103607 -0.000566515 1.01757e-20)
(0.0104452 -0.000496512 1.02441e-20)
(0.0105174 -0.000418529 8.96136e-23)
(0.0105534 -0.000329538 -2.04181e-20)
(0.0106091 -0.000225943 2.05924e-20)
(0.0123114 -0.001385 -3.31521e-20)
(0.0124118 -0.00132502 0)
(0.0125046 -0.00126354 0)
(0.0125922 -0.00119936 1.66283e-20)
(0.0126741 -0.00113301 -1.64746e-20)
(0.0127498 -0.00106529 -8.30314e-21)
(0.0128195 -0.000996748 8.24432e-21)
(0.012883 -0.000927432 0)
(0.0129399 -0.000857134 0)
(0.0129897 -0.000785255 8.31705e-21)
(0.0130316 -0.000710969 -8.28356e-21)
(0.0130652 -0.000632721 -1.6674e-20)
(0.0130877 -0.00054908 -7.45133e-23)
(0.0131049 -0.000456523 1.66603e-20)
(0.0130946 -0.000352108 0)
(0.0131199 -0.000230531 -3.35631e-20)
(0.0168314 -0.00141202 5.03734e-20)
(0.0167988 -0.00135151 -5.00808e-20)
(0.0167597 -0.00128808 -2.53784e-20)
(0.0167238 -0.00122266 2.52495e-20)
(0.0166896 -0.00115512 0)
(0.0166564 -0.00108598 0)
(0.016624 -0.00101557 0)
(0.0165923 -0.000943778 0)
(0.0165607 -0.000870195 0)
(0.0165289 -0.000794138 0)
(0.0164962 -0.000714662 -1.29752e-20)
(0.0164623 -0.000630382 1.29414e-20)
(0.0164255 -0.000539828 0)
(0.0163915 -0.000440251 -2.60601e-20)
(0.0163406 -0.000329813 2.60011e-20)
(0.0163401 -0.000202217 0)
(0.0209787 -0.00124501 0)
(0.0208831 -0.00118606 3.70942e-20)
(0.02078 -0.0011262 -3.70942e-20)
(0.020683 -0.0010661 -1.88676e-20)
(0.020591 -0.00100517 1.88608e-20)
(0.0205028 -0.000943172 0)
(0.0204183 -0.000879913 0)
(0.0203379 -0.000815006 0)
(0.0202613 -0.000747902 0)
(0.0201885 -0.000677908 0)
(0.0201193 -0.000604204 1.95456e-20)
(0.020054 -0.000525792 -1.95161e-20)
(0.0199915 -0.000441704 0)
(0.0199374 -0.00035024 0)
(0.0198748 -0.000251267 0)
(0.0198684 -0.000139437 3.9057e-20)
(0.0010849 -4.28314e-07 -1.53853e-21)
(0.00106339 -1.11446e-06 1.51516e-21)
(0.00105885 -1.62985e-06 1.55102e-21)
(0.00104599 -2.36684e-06 0)
(0.00102122 -3.68318e-06 0)
(0.000896195 1.80995e-05 -3.32684e-21)
(0.00088176 0.000194554 -1.53574e-18)
(0.00095539 0.000419886 1.62755e-21)
(0.00103131 0.000643453 -3.71368e-22)
(0.00118995 0.00086882 5.84526e-18)
(0.00141997 0.00107312 2.82953e-18)
(0.00161122 0.00124061 -2.66774e-18)
(0.0018715 0.00150173 -2.41362e-18)
(0.00271811 0.0020962 -2.04723e-18)
(0.00487948 0.00290399 -1.04854e-22)
(0.00642146 0.00169756 -5.29241e-20)
(0.00401798 6.67387e-05 0)
(0.0032754 1.73467e-06 -1.30946e-21)
(0.00324096 2.07256e-06 -1.32117e-21)
(0.00322734 2.63256e-06 0)
(0.00318444 4.71455e-06 2.70912e-21)
(0.00309162 1.10815e-05 2.17321e-23)
(0.00275224 8.52439e-05 -4.98763e-21)
(0.00258327 0.000547112 2.14817e-21)
(0.00266768 0.00111315 5.51646e-22)
(0.0028405 0.00169706 -2.04282e-18)
(0.0032476 0.00232407 -2.63385e-21)
(0.00386997 0.00294302 -2.2323e-18)
(0.00446867 0.00350458 2.31134e-18)
(0.00523979 0.00431648 4.58542e-18)
(0.00728191 0.00594859 2.18099e-18)
(0.0120535 0.00795781 -1.63117e-18)
(0.0160425 0.00494851 1.48491e-23)
(0.0122612 0.000530138 0)
(0.0048045 2.66186e-06 0)
(0.00479615 5.78323e-06 -4.42864e-21)
(0.00478229 9.49094e-06 6.02402e-21)
(0.00470037 1.81916e-05 -1.02176e-23)
(0.00451472 4.15593e-05 -1.01118e-20)
(0.00396395 0.000152983 -2.85969e-21)
(0.00351535 0.000750958 2.57498e-21)
(0.00352154 0.00145347 5.73832e-19)
(0.00377724 0.00220983 1.10502e-18)
(0.00443822 0.00308959 -1.11513e-18)
(0.00546516 0.00404979 -1.14953e-21)
(0.00655511 0.00502668 0)
(0.00788248 0.00632195 -1.24774e-18)
(0.010698 0.00844039 0)
(0.0165658 0.0105823 9.18853e-19)
(0.0223249 0.00694532 1.87165e-23)
(0.0194864 0.00117126 0)
(0.00520147 -2.08351e-06 -1.82224e-21)
(0.00523192 5.31588e-06 -3.68292e-21)
(0.00524157 1.47785e-05 -3.77722e-21)
(0.0051616 3.40201e-05 -7.61185e-21)
(0.00497341 8.17147e-05 2.02677e-20)
(0.0044271 0.000223497 1.87041e-21)
(0.00392963 0.000866568 8.32714e-19)
(0.00387601 0.00158973 1.5318e-21)
(0.00410831 0.00235022 -7.2772e-19)
(0.0048104 0.00324172 6.98139e-19)
(0.00596127 0.00427276 -7.03264e-19)
(0.00729309 0.00542282 -1.4254e-21)
(0.0089689 0.0069389 -7.0385e-19)
(0.01209 0.00908729 1.93297e-22)
(0.0179286 0.0108208 1.21932e-22)
(0.0243181 0.00721735 -1.17313e-20)
(0.0231918 0.0014099 2.33131e-20)
(0.00517508 -1.21827e-05 1.34042e-21)
(0.00522387 8.95812e-08 -7.58404e-24)
(0.00525311 1.71895e-05 2.74377e-21)
(0.00519038 4.89519e-05 -8.3688e-21)
(0.00504665 0.00012472 -8.20174e-21)
(0.00458712 0.000294572 0)
(0.00415125 0.00093876 -2.90565e-21)
(0.00413731 0.00167247 2.39068e-21)
(0.00440328 0.00243654 -5.6131e-19)
(0.00514399 0.00331648 -1.04894e-18)
(0.00632428 0.00433984 5.09926e-19)
(0.00771999 0.00551423 0)
(0.00954559 0.00705897 9.38861e-19)
(0.0127466 0.00906306 -4.09256e-22)
(0.0182603 0.0103749 -2.58477e-19)
(0.0239571 0.00679982 8.92683e-21)
(0.0237008 0.00145756 -2.56935e-20)
(0.00518701 -2.54733e-05 -2.23107e-21)
(0.00522605 -7.55864e-06 -2.21883e-21)
(0.00525023 1.86443e-05 -2.26911e-21)
(0.0051826 6.32548e-05 1.3867e-20)
(0.00506029 0.000167808 -9.12262e-21)
(0.0046684 0.000366449 4.86549e-20)
(0.0043014 0.000990477 -2.95498e-19)
(0.00437192 0.00172437 2.71736e-19)
(0.00475186 0.00251515 4.80756e-19)
(0.00561533 0.00342576 8.85945e-19)
(0.00688941 0.00447774 0)
(0.00838237 0.00568563 1.50567e-21)
(0.0103604 0.00723354 -7.20241e-19)
(0.0136654 0.00907909 2.86496e-19)
(0.0189949 0.0100637 3.75248e-19)
(0.0240587 0.00654622 -1.49567e-21)
(0.0236877 0.00159689 8.21829e-21)
(0.00540605 -3.77582e-05 8.01137e-21)
(0.00542327 -1.21424e-05 7.98297e-21)
(0.0054275 2.60777e-05 2.53001e-23)
(0.00533801 8.57248e-05 1.24049e-20)
(0.00520337 0.000219736 0)
(0.00484376 0.000450596 -6.98826e-20)
(0.00452454 0.00104441 0)
(0.00468404 0.00176122 -4.818e-19)
(0.00521431 0.00257608 -3.40342e-21)
(0.00623508 0.00352788 -3.44653e-21)
(0.00763233 0.00462459 -2.88172e-21)
(0.00926211 0.00587871 0)
(0.0114224 0.00741673 3.05543e-19)
(0.0148337 0.00906452 -2.43997e-19)
(0.019943 0.00969637 -1.54297e-19)
(0.0245799 0.00633762 0)
(0.0242152 0.00176745 0)
(0.0058525 -4.88233e-05 -1.11892e-20)
(0.00585208 -1.09811e-05 -1.48583e-20)
(0.00584068 4.43785e-05 7.53581e-21)
(0.00573684 0.000124708 -7.62558e-21)
(0.00558754 0.00029049 -1.51829e-20)
(0.00525225 0.000559528 4.02552e-20)
(0.00497911 0.00113232 0)
(0.00523335 0.00182949 4.55821e-19)
(0.00591389 0.00265817 1.9658e-19)
(0.00707657 0.00363367 -3.55231e-19)
(0.00858381 0.00475447 -3.33492e-19)
(0.0103467 0.00602543 -1.31314e-22)
(0.0126717 0.00750095 -2.13665e-21)
(0.01613 0.00888991 0)
(0.0209051 0.00914604 -1.21953e-19)
(0.0250307 0.00604942 4.65861e-23)
(0.0248972 0.00196627 -1.94492e-21)
(0.00651807 -5.95999e-05 -1.4085e-20)
(0.00650746 -4.22659e-06 6.9976e-21)
(0.00649283 7.32818e-05 -1.42112e-20)
(0.00639176 0.000181214 0)
(0.00625057 0.000383138 1.42763e-20)
(0.00595951 0.000696365 -1.4846e-20)
(0.00577394 0.00126132 0)
(0.00613441 0.0019391 -1.44815e-20)
(0.00694869 0.00276709 -1.69875e-21)
(0.00821932 0.00374219 1.0619e-20)
(0.00981084 0.00485721 1.0786e-20)
(0.0116861 0.00609873 -4.42257e-21)
(0.0141296 0.00744046 1.68144e-21)
(0.0175402 0.00850935 -1.25491e-21)
(0.0218575 0.0084022 6.05942e-20)
(0.0253828 0.0056481 0)
(0.0255119 0.00213112 1.75459e-21)
(0.00744228 -7.09163e-05 2.94215e-23)
(0.00742319 7.28831e-06 2.62087e-20)
(0.00741547 0.000113738 1.33299e-20)
(0.00733141 0.000254607 -4.01161e-20)
(0.0072238 0.000491245 2.6208e-20)
(0.00700298 0.000843381 -8.13927e-20)
(0.00695722 0.00140477 2.57212e-20)
(0.00743709 0.00206492 -1.92728e-19)
(0.00836882 0.00287655 -1.5214e-19)
(0.00971621 0.00382609 2.87155e-19)
(0.0113664 0.00489768 2.91885e-19)
(0.0133201 0.00605065 -8.01656e-21)
(0.0158056 0.00718409 -2.04554e-19)
(0.0190407 0.00789879 -5.10066e-22)
(0.0227869 0.00749534 5.25588e-20)
(0.0256743 0.00516038 -4.8316e-23)
(0.0260301 0.00224951 5.24282e-23)
(0.00873108 -8.04816e-05 -1.19106e-20)
(0.00870207 2.36938e-05 2.38094e-20)
(0.00870906 0.000161637 -2.38424e-20)
(0.00866973 0.000341881 0)
(0.00861215 0.00061224 0)
(0.00848306 0.000984881 4.78391e-20)
(0.00860301 0.00152875 -1.79583e-19)
(0.0092091 0.00216632 4.17455e-20)
(0.0102359 0.0029434 -1.88459e-19)
(0.0116238 0.00383916 -2.77991e-19)
(0.0132922 0.00482121 1.22004e-19)
(0.0152592 0.0058195 -1.00976e-19)
(0.0176713 0.00668445 2.73857e-19)
(0.0205864 0.00705739 -6.96123e-20)
(0.0236849 0.00647369 4.89159e-20)
(0.0259572 0.0045997 8.02958e-23)
(0.0264806 0.00229156 -8.54559e-23)
(0.0105305 -8.42484e-05 -3.0997e-20)
(0.0104889 4.7864e-05 -1.05746e-20)
(0.010519 0.000214415 8.22454e-20)
(0.0105387 0.000430734 2.17442e-22)
(0.0105714 0.000730952 -8.0311e-20)
(0.010576 0.00110107 3.98204e-20)
(0.010864 0.00160176 1.50309e-19)
(0.0115655 0.00220161 0)
(0.0126293 0.0029201 1.29297e-19)
(0.0139914 0.0037247 1.43255e-19)
(0.0156014 0.00456391 -1.35676e-19)
(0.0174735 0.00534947 1.88365e-19)
(0.0196671 0.00592614 -4.76843e-21)
(0.0221322 0.00602776 1.26132e-19)
(0.0245645 0.00540234 -4.5622e-20)
(0.0262938 0.00398485 -5.53692e-22)
(0.0269117 0.00223434 -6.73449e-21)
(0.0129986 -7.7713e-05 -1.68828e-20)
(0.0129498 7.77139e-05 6.71699e-20)
(0.0130164 0.000265509 -6.65568e-20)
(0.0131114 0.000500852 -3.31641e-20)
(0.0132573 0.000804586 1.60061e-19)
(0.0134311 0.00115728 -6.25821e-20)
(0.0138297 0.00161154 -5.75263e-20)
(0.0145507 0.00215707 -5.53605e-20)
(0.0155536 0.00278541 1.00838e-19)
(0.0167893 0.0034551 -2.73887e-20)
(0.018229 0.0041061 -6.27232e-20)
(0.0198716 0.00465292 -4.37473e-21)
(0.0217096 0.00497366 -1.35592e-19)
(0.0236487 0.00490952 -5.6867e-20)
(0.0254598 0.00435733 -4.66944e-20)
(0.0267404 0.00334778 2.02219e-20)
(0.0273793 0.00207879 1.49433e-20)
(0.0161866 -5.64777e-05 0)
(0.0161388 0.000105472 -1.29744e-20)
(0.0162401 0.000295381 -2.56404e-20)
(0.0164042 0.000523932 9.62969e-24)
(0.0166369 0.000801395 -2.45656e-20)
(0.0169276 0.00111903 0)
(0.0173748 0.00151389 9.00495e-20)
(0.0180285 0.00197313 8.30599e-20)
(0.0188704 0.00247352 -1.62735e-19)
(0.0198768 0.0029734 -7.737e-20)
(0.0210358 0.00341976 3.87089e-20)
(0.0223365 0.00374938 -4.74723e-20)
(0.0237382 0.00389076 7.34069e-20)
(0.0251497 0.00376942 -2.86951e-21)
(0.0264267 0.00335594 4.66406e-20)
(0.0273426 0.00268031 -1.78529e-20)
(0.0279557 0.0017953 -1.8101e-20)
(0.0197119 -2.18351e-05 -1.15741e-19)
(0.0196704 0.000125496 8.78436e-20)
(0.0197815 0.000298371 0)
(0.0199692 0.000502783 -9.24013e-20)
(0.0202273 0.000744042 7.18578e-20)
(0.0205548 0.00102097 -3.36898e-20)
(0.0209665 0.00134739 -6.46946e-20)
(0.0214846 0.00170653 1.25554e-19)
(0.0221091 0.00207148 -2.48074e-21)
(0.0228418 0.00240949 5.64777e-20)
(0.0236872 0.00268393 -3.84569e-21)
(0.0246344 0.00285886 -2.67725e-21)
(0.0256353 0.00290311 0)
(0.0266174 0.00278786 -5.26954e-21)
(0.0274897 0.00250399 5.67941e-21)
(0.0281475 0.00204489 0)
(0.0287007 0.00144481 1.72352e-20)
(0.0296794 0.000714414 1.49115e-20)
(0.0298019 0.000323678 -9.60642e-22)
(0.0297432 -7.49542e-05 0)
(0.029461 -0.000452474 -5.51301e-20)
(0.029015 -0.000775245 0)
(0.0284754 -0.00102244 -2.75928e-20)
(0.0279074 -0.00119448 0)
(0.0273458 -0.00130701 -4.18693e-20)
(0.0267999 -0.00137579 -2.89301e-20)
(0.0262728 -0.00141014 -4.41392e-20)
(0.0257695 -0.00141462 6.00819e-20)
(0.0253088 -0.00139059 -6.06629e-20)
(0.0249047 -0.0013475 6.24002e-20)
(0.024562 -0.00129434 -1.55411e-20)
(0.0242914 -0.00123263 -3.23431e-20)
(0.0240398 -0.00117033 0)
(0.0239892 -0.00109419 0)
(0.0305622 0.00056957 -1.73091e-20)
(0.0306965 0.000284923 -5.64878e-21)
(0.030694 -8.93254e-07 0)
(0.0305297 -0.000274232 5.26291e-20)
(0.0302438 -0.000517395 0)
(0.0298779 -0.000715767 3.32035e-20)
(0.0294757 -0.000863637 8.48316e-21)
(0.029065 -0.000966574 -8.40786e-21)
(0.0286557 -0.00103467 0)
(0.0282512 -0.00107613 -3.46518e-20)
(0.0278556 -0.00109584 -3.49968e-20)
(0.0274819 -0.00109506 3.54498e-20)
(0.0271443 -0.00107635 -3.62428e-20)
(0.0268514 -0.0010437 -3.71765e-20)
(0.0266111 -0.000999666 1.87699e-20)
(0.0263924 -0.000949628 -9.65337e-21)
(0.0263123 -0.000883028 0)
(0.0311218 0.00042844 -7.30499e-22)
(0.0312686 0.000216259 7.78401e-21)
(0.0313068 7.27692e-06 -7.48836e-22)
(0.0312169 -0.000197264 -2.205e-20)
(0.0310313 -0.000386558 0)
(0.0307778 -0.000547989 0)
(0.0304857 -0.00067378 -4.67887e-20)
(0.030176 -0.000765193 2.59173e-20)
(0.0298586 -0.000828696 -3.12815e-20)
(0.0295387 -0.000870475 4.16312e-20)
(0.0292211 -0.000894499 -3.13787e-20)
(0.0289155 -0.000901821 -3.17295e-20)
(0.0286324 -0.000893512 1.08411e-20)
(0.0283791 -0.000871624 0)
(0.0281613 -0.000837626 -2.26742e-20)
(0.0279616 -0.000795786 3.44003e-20)
(0.0278535 -0.000732719 3.40873e-20)
(0.0314105 0.000325265 0)
(0.0315688 0.000162445 -3.03023e-21)
(0.0316361 3.49586e-06 -1.6967e-20)
(0.0315981 -0.000156231 2.64192e-21)
(0.0314835 -0.000306981 -1.68277e-21)
(0.0313106 -0.000437767 0)
(0.0310979 -0.00054091 5.12124e-20)
(0.0308613 -0.000616252 -2.55057e-20)
(0.0306102 -0.000668759 2.54774e-20)
(0.0303509 -0.000703695 1.90652e-20)
(0.0300887 -0.000724547 7.03802e-20)
(0.0298314 -0.000732024 -1.27924e-20)
(0.0295868 -0.000726341 -3.93448e-20)
(0.0293608 -0.000708433 1.31015e-20)
(0.0291575 -0.000679009 1.36359e-20)
(0.0289684 -0.000642216 -6.75218e-21)
(0.0288366 -0.000583305 -2.7462e-20)
(0.0314749 0.000230073 0)
(0.0316486 0.000105869 1.90519e-21)
(0.0317403 -1.48019e-05 1.97994e-20)
(0.0317419 -0.000140956 1.12409e-21)
(0.0316808 -0.0002621 -3.21468e-21)
(0.0315681 -0.000368361 3.52221e-20)
(0.0314148 -0.000452157 0)
(0.0312326 -0.000512748 -3.21433e-20)
(0.0310306 -0.000554446 -4.01478e-21)
(0.0308158 -0.00058197 3.57258e-20)
(0.030594 -0.000598425 -3.1773e-20)
(0.0303717 -0.000604151 1.59684e-20)
(0.0301551 -0.000598856 1.61569e-20)
(0.029949 -0.000582905 -3.29123e-20)
(0.0297558 -0.000556616 1.68307e-20)
(0.0295747 -0.00052495 1.72289e-20)
(0.0294245 -0.000467464 0)
(0.0312751 0.000150881 0)
(0.0314697 5.97414e-05 3.7924e-21)
(0.0315876 -3.12683e-05 1.22775e-20)
(0.0316294 -0.000132191 0)
(0.0316195 -0.000230999 -1.39833e-21)
(0.0315622 -0.000318593 -4.43022e-20)
(0.0314623 -0.000386901 5.25877e-21)
(0.0313281 -0.000434775 2.06869e-20)
(0.0311687 -0.000466402 1.79506e-20)