/*--------------------------------*- C++ -*----------------------------------*\
| =========                 |                                                 |
| \\      /  F ield         | OpenFOAM: The Open Source CFD Toolbox           |
|  \\    /   O peration     | Version:  2.3.x                                 |
|   \\  /    A nd           | Web:      www.OpenFOAM.org                      |
|    \\/     M anipulation  |                                                 |
\*---------------------------------------------------------------------------*/
FoamFile
{
    version     2.0;
    format      ascii;
    class       volScalarField;
    location    "25000.000000";
    object      V;
}
// * * * * * * * * * * * * * * * * * * * * * * * * * * * * * * * * * * * * * //

dimensions      [0 3 0 0 0 0 0];

internalField   nonuniform List<scalar> 
3000
(
0.000135719
0.000130811
0.000124251
0.000127545
0.000138704
0.000151827
0.00016326
0.000175928
0.000192197
0.000208908
0.000223655
0.000207281
0.000217809
0.000208495
0.000205584
0.000204897
0.000202202
0.000173965
0.00016776
0.000159504
0.000163803
0.000178106
0.000194899
0.000209545
0.000225761
0.000246545
0.000267863
0.000286644
0.000265795
0.000279148
0.000267265
0.000263533
0.000262639
0.000259054
0.000222965
0.000215155
0.000204823
0.000210461
0.000228791
0.000250269
0.000269025
0.000289772
0.000316296
0.000343452
0.000367323
0.00034083
0.000357712
0.00034257
0.000337787
0.000336618
0.000331809
0.000285731
0.000275956
0.000263125
0.000270561
0.000294049
0.000321499
0.00034551
0.000372037
0.000405839
0.000440365
0.000470626
0.000437052
0.000458304
0.000439046
0.000432916
0.00043138
0.000424865
0.000366104
0.000353964
0.0003382
0.000348072
0.000378164
0.000413213
0.000443937
0.000477827
0.000520826
0.000564613
0.000602844
0.000560446
0.000587046
0.000562612
0.000554758
0.000552728
0.0005438
0.000468985
0.000454067
0.000434983
0.000448197
0.000486741
0.000531437
0.000570728
0.000613979
0.000668551
0.000723899
0.000771982
0.000718691
0.000751728
0.000720825
0.000710763
0.000708062
0.000695669
0.000600611
0.000582548
0.000559937
0.000577794
0.000627147
0.000684057
0.000734263
0.000789387
0.000858434
0.000928093
0.000988204
0.000921635
0.000962238
0.000923315
0.00091043
0.000906801
0.000889359
0.000768908
0.000747497
0.00072156
0.000745961
0.00080913
0.00088144
0.000945532
0.00101566
0.00110267
0.00118984
0.00126438
0.00118192
0.00123109
0.00118233
0.00116584
0.00116092
0.001136
0.000983913
0.000959341
0.000931108
0.000964866
0.00104568
0.00113731
0.00121902
0.00130804
0.0014171
0.00152532
0.00161672
0.00151576
0.00157406
0.00151344
0.00149233
0.00148558
0.00144943
0.0012583
0.00123153
0.00120359
0.00125094
0.00135425
0.00146995
0.00157396
0.0016866
0.00182232
0.00195526
0.0020656
0.00194398
0.00201092
0.00193631
0.00190931
0.00189993
0.00184668
0.00160799
0.00158145
0.00155921
0.0016266
0.00175856
0.00190398
0.00203607
0.00217805
0.0023453
0.00250617
0.00263638
0.00249332
0.00256629
0.00247576
0.00244127
0.00242803
0.00234841
0.00205286
0.00203163
0.00202545
0.00212284
0.00229121
0.00247283
0.00264012
0.00281814
0.00302143
0.00321195
0.00336036
0.00319813
0.00327056
0.00316291
0.00311887
0.00309994
0.0029792
0.00261749
0.00261133
0.00264013
0.00278305
0.00299757
0.00322249
0.00343357
0.00365519
0.00389753
0.0041159
0.0042757
0.00410254
0.00416067
0.00403651
0.00398036
0.00395284
0.00376736
0.00333196
0.00335867
0.00345599
0.00366893
0.00394174
0.00421704
0.00448206
0.00475532
0.00503591
0.0052733
0.00542806
0.00526333
0.00528073
0.00514435
0.00507287
0.00503226
0.00474402
0.00423241
0.00432358
0.00454764
0.00486949
0.00521558
0.00554706
0.00587761
0.00621003
0.00652025
0.00675458
0.00687057
0.00675358
0.00668194
0.00654458
0.00645378
0.00639297
0.00594048
0.000197576
0.000197576
0.000197576
0.000197576
0.000197576
0.000197576
0.000197576
0.000197576
0.000197576
0.000197576
0.000197576
0.000197576
0.000197576
0.000197576
0.000197576
0.000197576
0.00025321
0.00025321
0.00025321
0.00025321
0.00025321
0.00025321
0.00025321
0.00025321
0.00025321
0.00025321
0.00025321
0.00025321
0.00025321
0.00025321
0.00025321
0.00025321
0.000324461
0.000324461
0.000324461
0.000324461
0.000324461
0.000324461
0.000324461
0.000324461
0.000324461
0.000324461
0.000324461
0.000324461
0.000324461
0.000324461
0.000324461
0.000324461
0.000415681
0.000415681
0.000415681
0.000415681
0.000415681
0.000415681
0.000415681
0.000415681
0.000415681
0.000415681
0.000415681
0.000415681
0.000415681
0.000415681
0.000415681
0.000415681
0.000532416
0.000532416
0.000532416
0.000532416
0.000532416
0.000532416
0.000532416
0.000532416
0.000532416
0.000532416
0.000532416
0.000532416
0.000532416
0.000532416
0.000532416
0.000532416
0.000681718
0.000681718
0.000681718
0.000681718
0.000681718
0.000681718
0.000681718
0.000681718
0.000681718
0.000681718
0.000681718
0.000681718
0.000681718
0.000681718
0.000681718
0.000681718
0.000872532
0.000872532
0.000872532
0.000872532
0.000872532
0.000872532
0.000872532
0.000872532
0.000872532
0.000872532
0.000872532
0.000872532
0.000872532
0.000872532
0.000872532
0.000872532
0.00111617
0.00111617
0.00111617
0.00111617
0.00111617
0.00111617
0.00111617
0.00111617
0.00111617
0.00111617
0.00111617
0.00111617
0.00111617
0.00111617
0.00111617
0.00111617
0.00142687
0.00142687
0.00142687
0.00142687
0.00142687
0.00142687
0.00142687
0.00142687
0.00142687
0.00142687
0.00142687
0.00142687
0.00142687
0.00142687
0.00142687
0.00142687
0.00182247
0.00182247
0.00182247
0.00182247
0.00182247
0.00182247
0.00182247
0.00182247
0.00182247
0.00182247
0.00182247
0.00182247
0.00182247
0.00182247
0.00182247
0.00182247
0.00232513
0.00232513
0.00232513
0.00232513
0.00232513
0.00232513
0.00232513
0.00232513
0.00232513
0.00232513
0.00232513
0.00232513
0.00232513
0.00232513
0.00232513
0.00232513
0.00296209
0.00296209
0.00296209
0.00296209
0.00296209
0.00296209
0.00296209
0.00296209
0.00296209
0.00296209
0.00296209
0.00296209
0.00296209
0.00296209
0.00296209
0.00296209
0.0037664
0.0037664
0.0037664
0.0037664
0.0037664
0.0037664
0.0037664
0.0037664
0.0037664
0.0037664
0.0037664
0.0037664
0.0037664
0.0037664
0.0037664
0.0037664
0.00477725
0.00477725
0.00477725
0.00477725
0.00477725
0.00477725
0.00477725
0.00477725
0.00477725
0.00477725
0.00477725
0.00477725
0.00477725
0.00477725
0.00477725
0.00477725
0.00603978
0.00603978
0.00603978
0.00603978
0.00603978
0.00603978
0.00603978
0.00603978
0.00603978
0.00603978
0.00603978
0.00603978
0.00603978
0.00603978
0.00603978
0.00603978
0.000202202
0.000204897
0.000205584
0.000208495
0.000217809
0.000207281
0.000223655
0.000208908
0.000192197
0.000175928
0.00016326
0.000151827
0.000138704
0.000127545
0.000124251
0.000130811
0.000135719
0.000259054
0.000262639
0.000263533
0.000267265
0.000279148
0.000265795
0.000286644
0.000267863
0.000246545
0.000225761
0.000209545
0.000194899
0.000178106
0.000163803
0.000159504
0.00016776
0.000173965
0.000331809
0.000336618
0.000337787
0.00034257
0.000357712
0.00034083
0.000367323
0.000343452
0.000316296
0.000289772
0.000269025
0.000250269
0.000228791
0.000210461
0.000204823
0.000215155
0.000222965
0.000424865
0.00043138
0.000432916
0.000439046
0.000458304
0.000437052
0.000470626
0.000440365
0.000405839
0.000372037
0.00034551
0.000321499
0.000294049
0.000270561
0.000263125
0.000275956
0.000285731
0.0005438
0.000552728
0.000554758
0.000562612
0.000587046
0.000560446
0.000602844
0.000564613
0.000520826
0.000477827
0.000443937
0.000413213
0.000378164
0.000348072
0.0003382
0.000353964
0.000366104
0.000695669
0.000708062
0.000710763
0.000720825
0.000751728
0.000718691
0.000771982
0.000723899
0.000668551
0.000613979
0.000570728
0.000531437
0.000486741
0.000448197
0.000434983
0.000454067
0.000468985
0.000889359
0.000906801
0.00091043
0.000923315
0.000962238
0.000921635
0.000988204
0.000928093
0.000858434
0.000789387
0.000734263
0.000684057
0.000627147
0.000577794
0.000559937
0.000582548
0.000600611
0.001136
0.00116092
0.00116584
0.00118233
0.00123109
0.00118192
0.00126438
0.00118984
0.00110267
0.00101566
0.000945532
0.00088144
0.00080913
0.000745961
0.00072156
0.000747497
0.000768908
0.00144943
0.00148558
0.00149233
0.00151344
0.00157406
0.00151576
0.00161672
0.00152532
0.0014171
0.00130804
0.00121902
0.00113731
0.00104568
0.000964866
0.000931108
0.000959341
0.000983913
0.00184668
0.00189993
0.00190931
0.00193631
0.00201092
0.00194398
0.0020656
0.00195526
0.00182232
0.0016866
0.00157396
0.00146995
0.00135425
0.00125094
0.00120359
0.00123153
0.0012583
0.00234841
0.00242803
0.00244127
0.00247576
0.00256629
0.00249332
0.00263638
0.00250617
0.0023453
0.00217805
0.00203607
0.00190398
0.00175856
0.0016266
0.00155921
0.00158145
0.00160799
0.0029792
0.00309994
0.00311887
0.00316291
0.00327056
0.00319813
0.00336036
0.00321195
0.00302143
0.00281814
0.00264012
0.00247283
0.00229121
0.00212284
0.00202545
0.00203163
0.00205286
0.00376736
0.00395284
0.00398036
0.00403651
0.00416067
0.00410254
0.0042757
0.0041159
0.00389753
0.00365519
0.00343357
0.00322249
0.00299757
0.00278306
0.00264013
0.00261133
0.00261749
0.00474402
0.00503226
0.00507287
0.00514435
0.00528073
0.00526333
0.00542806
0.0052733
0.00503591
0.00475532
0.00448206
0.00421704
0.00394174
0.00366893
0.00345599
0.00335867
0.00333196
0.00594048
0.00639297
0.00645378
0.00654458
0.00668194
0.00675358
0.00687057
0.00675458
0.00652025
0.00621003
0.00587761
0.00554706
0.00521558
0.00486949
0.00454764
0.00432358
0.00423241
0.00428764
0.0043732
0.00440121
0.00446556
0.00459051
0.00476057
0.00496506
0.00517112
0.00536669
0.00555624
0.00574573
0.00593193
0.00610844
0.00625409
0.00636273
0.00643233
0.00598568
0.00335687
0.00341721
0.00344252
0.00350069
0.00360502
0.00374183
0.00390073
0.00405963
0.0042111
0.00435822
0.00450452
0.004647
0.00478023
0.00489011
0.00497231
0.00502542
0.00475454
0.00262588
0.00266905
0.0026909
0.00274111
0.00282666
0.0029359
0.00305947
0.00318231
0.00329979
0.0034141
0.0035273
0.00363675
0.00373795
0.00382139
0.00388397
0.00392467
0.00376053
0.00205268
0.00208399
0.00210231
0.00214442
0.00221369
0.00230043
0.00239658
0.00249172
0.00258294
0.00267184
0.00275956
0.00284391
0.0029212
0.0029849
0.00303277
0.00306408
0.00296472
0.00160377
0.00162675
0.00164181
0.00167645
0.00173202
0.00180061
0.00187547
0.00194926
0.00202016
0.00208933
0.00215741
0.00222258
0.00228186
0.00233071
0.00236747
0.00239162
0.00233156
0.00125253
0.00126957
0.00128179
0.0013099
0.00135418
0.00140824
0.00146654
0.00152384
0.00157899
0.00163284
0.00168574
0.00173618
0.00178181
0.00181939
0.00184772
0.0018664
0.00183015
0.000977898
0.000990657
0.00100048
0.00102306
0.00105817
0.00110068
0.0011461
0.00119063
0.00123356
0.00127549
0.00131662
0.00135574
0.00139095
0.00141995
0.00144183
0.0014563
0.00143448
0.000763297
0.000772924
0.000780759
0.000798774
0.000826501
0.000859866
0.000895258
0.000929901
0.000963322
0.000995992
0.00102799
0.00105836
0.00108559
0.00110803
0.00112496
0.00113619
0.00112309
0.000595677
0.000602988
0.000609205
0.0006235
0.000645335
0.000671485
0.000699069
0.00072603
0.000752062
0.000777519
0.000802429
0.000826026
0.000847131
0.000864512
0.000877642
0.000886359
0.00087853
0.000464797
0.000470379
0.000475292
0.00048659
0.000503748
0.000524219
0.00054572
0.000566713
0.000586995
0.000606835
0.000626234
0.000644586
0.000660962
0.000674447
0.00068464
0.000691416
0.000686761
0.000362631
0.000366912
0.000370783
0.000379685
0.000393144
0.000409157
0.000425918
0.00044227
0.000458075
0.00047354
0.000488651
0.000502933
0.000515654
0.000526128
0.000534049
0.00053932
0.000536571
0.000282897
0.000286191
0.000289234
0.000296231
0.000306776
0.000319293
0.00033236
0.0003451
0.000357418
0.000369474
0.000381249
0.000392368
0.000402258
0.000410401
0.000416561
0.000420663
0.000419056
0.000220679
0.000223221
0.000225608
0.000231099
0.000239351
0.000249131
0.000259319
0.000269247
0.000278849
0.000288249
0.000297425
0.000306085
0.000313779
0.000320114
0.000324907
0.000328102
0.000327175
0.000172135
0.000174101
0.000175972
0.000180274
0.000186728
0.000194365
0.00020231
0.000210047
0.000217533
0.000224862
0.000232014
0.000238761
0.00024475
0.000249681
0.000253413
0.000255901
0.000255376
0.000134264
0.000135787
0.000137252
0.000140619
0.000145663
0.000151625
0.00015782
0.000163852
0.000169688
0.000175402
0.000180979
0.000186236
0.0001909
0.000194739
0.000197645
0.000199584
0.000199296
0.00594326
0.00594326
0.00594326
0.00594326
0.00594326
0.00594326
0.00594326
0.00594326
0.00594326
0.00594326
0.00594326
0.00594326
0.00594326
0.00594326
0.00594326
0.00594326
0.00456799
0.00456799
0.00456799
0.00456799
0.00456799
0.00456799
0.00456799
0.00456799
0.00456799
0.00456799
0.00456799
0.00456799
0.00456799
0.00456799
0.00456799
0.00456799
0.00352171
0.00352171
0.00352171
0.00352171
0.00352171
0.00352171
0.00352171
0.00352171
0.00352171
0.00352171
0.00352171
0.00352171
0.00352171
0.00352171
0.00352171
0.00352171
0.00272171
0.00272171
0.00272171
0.00272171
0.00272171
0.00272171
0.00272171
0.00272171
0.00272171
0.00272171
0.00272171
0.00272171
0.00272171
0.00272171
0.00272171
0.00272171
0.00210751
0.00210751
0.00210751
0.00210751
0.00210751
0.00210751
0.00210751
0.00210751
0.00210751
0.00210751
0.00210751
0.00210751
0.00210751
0.00210751
0.00210751
0.00210751
0.00163443
0.00163443
0.00163443
0.00163443
0.00163443
0.00163443
0.00163443
0.00163443
0.00163443
0.00163443
0.00163443
0.00163443
0.00163443
0.00163443
0.00163443
0.00163443
0.00126907
0.00126907
0.00126907
0.00126907
0.00126907
0.00126907
0.00126907
0.00126907
0.00126907
0.00126907
0.00126907
0.00126907
0.00126907
0.00126907
0.00126907
0.00126907
0.000986322
0.000986322
0.000986322
0.000986322
0.000986322
0.000986322
0.000986322
0.000986322
0.000986322
0.000986322
0.000986322
0.000986322
0.000986322
0.000986322
0.000986322
0.000986322
0.000767144
0.000767144
0.000767144
0.000767144
0.000767144
0.000767144
0.000767144
0.000767144
0.000767144
0.000767144
0.000767144
0.000767144
0.000767144
0.000767144
0.000767144
0.000767144
0.00059702
0.00059702
0.00059702
0.00059702
0.00059702
0.00059702
0.00059702
0.00059702
0.00059702
0.00059702
0.00059702
0.00059702
0.00059702
0.00059702
0.00059702
0.00059702
0.000464837
0.000464837
0.000464837
0.000464837
0.000464837
0.000464837
0.000464837
0.000464837
0.000464837
0.000464837
0.000464837
0.000464837
0.000464837
0.000464837
0.000464837
0.000464837
0.00036205
0.00036205
0.00036205
0.00036205
0.00036205
0.00036205
0.00036205
0.00036205
0.00036205
0.00036205
0.00036205
0.00036205
0.00036205
0.00036205
0.00036205
0.00036205
0.000282071
0.000282071
0.000282071
0.000282071
0.000282071
0.000282071
0.000282071
0.000282071
0.000282071
0.000282071
0.000282071
0.000282071
0.000282071
0.000282071
0.000282071
0.000282071
0.000219808
0.000219808
0.000219808
0.000219808
0.000219808
0.000219808
0.000219808
0.000219808
0.000219808
0.000219808
0.000219808
0.000219808
0.000219808
0.000219808
0.000219808
0.000219808
0.000171318
0.000171318
0.000171318
0.000171318
0.000171318
0.000171318
0.000171318
0.000171318
0.000171318
0.000171318
0.000171318
0.000171318
0.000171318
0.000171318
0.000171318
0.000171318
0.00598568
0.00643233
0.00636273
0.00625409
0.00610844
0.00593193
0.00574573
0.00555624
0.00536669
0.00517112
0.00496506
0.00476057
0.00459051
0.00446556
0.00440121
0.0043732
0.00428764
0.00475454
0.00502542
0.00497231
0.00489011
0.00478023
0.004647
0.00450452
0.00435822
0.0042111
0.00405963
0.00390073
0.00374183
0.00360502
0.00350069
0.00344252
0.00341721
0.00335687
0.00376053
0.00392467
0.00388397
0.00382139
0.00373795
0.00363675
0.0035273
0.0034141
0.00329979
0.00318231
0.00305947
0.0029359
0.00282666
0.00274111
0.0026909
0.00266905
0.00262588
0.00296472
0.00306408
0.00303277
0.0029849
0.0029212
0.00284391
0.00275956
0.00267184
0.00258294
0.00249172
0.00239658
0.00230043
0.00221369
0.00214442
0.00210231
0.00208399
0.00205268
0.00233156
0.00239162
0.00236747
0.00233071
0.00228186
0.00222258
0.00215741
0.00208933
0.00202016
0.00194926
0.00187547
0.00180061
0.00173202
0.00167645
0.00164181
0.00162675
0.00160377
0.00183015
0.0018664
0.00184772
0.00181939
0.00178181
0.00173618
0.00168574
0.00163284
0.00157899
0.00152384
0.00146654
0.00140824
0.00135418
0.0013099
0.00128179
0.00126957
0.00125253
0.00143448
0.0014563
0.00144183
0.00141995
0.00139095
0.00135574
0.00131662
0.00127549
0.00123356
0.00119063
0.0011461
0.00110068
0.00105817
0.00102306
0.00100048
0.000990657
0.000977898
0.00112309
0.00113619
0.00112496
0.00110803
0.00108559
0.00105836
0.00102799
0.000995992
0.000963322
0.000929901
0.000895258
0.000859866
0.000826501
0.000798774
0.000780759
0.000772924
0.000763297
0.00087853
0.000886359
0.000877642
0.000864512
0.000847131
0.000826026
0.000802429
0.000777519
0.000752062
0.00072603
0.000699069
0.000671485
0.000645335
0.0006235
0.000609205
0.000602988
0.000595677
0.000686761
0.000691416
0.00068464
0.000674447
0.000660962
0.000644586
0.000626234
0.000606835
0.000586995
0.000566713
0.00054572
0.000524219
0.000503748
0.00048659
0.000475292
0.000470379
0.000464797
0.000536571
0.00053932
0.000534049
0.000526128
0.000515654
0.000502933
0.000488651
0.00047354
0.000458075
0.00044227
0.000425918
0.000409157
0.000393144
0.000379685
0.000370783
0.000366912
0.000362631
0.000419056
0.000420663
0.000416561
0.000410401
0.000402258
0.000392368
0.000381249
0.000369474
0.000357418
0.0003451
0.00033236
0.000319293
0.000306776
0.000296231
0.000289234
0.000286191
0.000282897
0.000327175
0.000328102
0.000324907
0.000320114
0.000313779
0.000306085
0.000297425
0.000288249
0.000278849
0.000269247
0.000259319
0.000249131
0.000239351
0.000231099
0.000225608
0.000223221
0.000220679
0.000255376
0.000255901
0.000253413
0.000249681
0.00024475
0.000238761
0.000232014
0.000224862
0.000217533
0.000210047
0.00020231
0.000194365
0.000186728
0.000180274
0.000175972
0.000174101
0.000172135
0.000199296
0.000199584
0.000197645
0.000194739
0.0001909
0.000186236
0.000180979
0.000175402
0.000169688
0.000163852
0.00015782
0.000151625
0.000145663
0.000140619
0.000137252
0.000135787
0.000134264
0.000135719
0.000130811
0.000124251
0.000127545
0.000138704
0.000151827
0.00016326
0.000175928
0.000192197
0.000208908
0.000223655
0.000207281
0.000217809
0.000208495
0.000205584
0.000204897
0.000202202
0.000173965
0.00016776
0.000159504
0.000163803
0.000178106
0.000194899
0.000209545
0.000225761
0.000246545
0.000267863
0.000286644
0.000265795
0.000279148
0.000267265
0.000263533
0.000262639
0.000259054
0.000222965
0.000215155
0.000204823
0.000210461
0.000228791
0.000250269
0.000269025
0.000289772
0.000316296
0.000343452
0.000367323
0.00034083
0.000357712
0.00034257
0.000337787
0.000336618
0.000331809
0.000285731
0.000275956
0.000263125
0.000270561
0.000294049
0.000321499
0.00034551
0.000372037
0.000405839
0.000440365
0.000470626
0.000437052
0.000458304
0.000439046
0.000432916
0.00043138
0.000424865
0.000366104
0.000353964
0.0003382
0.000348072
0.000378164
0.000413213
0.000443937
0.000477827
0.000520826
0.000564613
0.000602844
0.000560446
0.000587046
0.000562612
0.000554758
0.000552728
0.0005438
0.000468985
0.000454067
0.000434983
0.000448197
0.000486741
0.000531437
0.000570728
0.000613979
0.000668551
0.000723899
0.000771982
0.000718691
0.000751728
0.000720825
0.000710764
0.000708062
0.000695669
0.000600611
0.000582548
0.000559937
0.000577794
0.000627147
0.000684057
0.000734263
0.000789387
0.000858434
0.000928093
0.000988204
0.000921635
0.000962238
0.000923315
0.00091043
0.000906801
0.000889359
0.000768908
0.000747497
0.00072156
0.000745961
0.00080913
0.00088144
0.000945532
0.00101566
0.00110267
0.00118984
0.00126438
0.00118192
0.00123109
0.00118233
0.00116584
0.00116092
0.001136
0.000983913
0.000959341
0.000931108
0.000964866
0.00104568
0.00113731
0.00121902
0.00130804
0.0014171
0.00152532
0.00161672
0.00151576
0.00157406
0.00151344
0.00149233
0.00148558
0.00144943
0.0012583
0.00123153
0.00120359
0.00125094
0.00135425
0.00146995
0.00157396
0.0016866
0.00182232
0.00195526
0.0020656
0.00194398
0.00201092
0.00193631
0.00190931
0.00189993
0.00184668
0.00160799
0.00158145
0.00155921
0.0016266
0.00175856
0.00190398
0.00203607
0.00217805
0.0023453
0.00250617
0.00263638
0.00249332
0.00256629
0.00247576
0.00244127
0.00242803
0.00234841
0.00205286
0.00203163
0.00202545
0.00212284
0.00229121
0.00247283
0.00264012
0.00281814
0.00302143
0.00321195
0.00336036
0.00319813
0.00327056
0.00316292
0.00311887
0.00309994
0.0029792
0.00261749
0.00261133
0.00264013
0.00278306
0.00299757
0.00322249
0.00343357
0.00365519
0.00389753
0.0041159
0.0042757
0.00410254
0.00416067
0.00403651
0.00398036
0.00395284
0.00376736
0.00333196
0.00335867
0.00345599
0.00366893
0.00394174
0.00421704
0.00448206
0.00475532
0.00503591
0.0052733
0.00542806
0.00526333
0.00528073
0.00514435
0.00507287
0.00503226
0.00474402
0.00423241
0.00432358
0.00454764
0.00486949
0.00521558
0.00554706
0.00587761
0.00621003
0.00652025
0.00675458
0.00687057
0.00675358
0.00668194
0.00654458
0.00645378
0.00639297
0.00594048
0.000197576
0.000197576
0.000197576
0.000197576
0.000197576
0.000197576
0.000197576
0.000197576
0.000197576
0.000197576
0.000197576
0.000197576
0.000197576
0.000197576
0.000197576
0.000197576
0.00025321
0.00025321
0.00025321
0.00025321
0.00025321
0.00025321
0.00025321
0.00025321
0.00025321
0.00025321
0.00025321
0.00025321
0.00025321
0.00025321
0.00025321
0.00025321
0.000324461
0.000324461
0.000324461
0.000324461
0.000324461
0.000324461
0.000324461
0.000324461
0.000324461
0.000324461
0.000324461
0.000324461
0.000324461
0.000324461
0.000324461
0.000324461
0.000415681
0.000415681
0.000415681
0.000415681
0.000415681
0.000415681
0.000415681
0.000415681
0.000415681
0.000415681
0.000415681
0.000415681
0.000415681
0.000415681
0.000415681
0.000415681
0.000532416
0.000532416
0.000532416
0.000532417
0.000532416
0.000532416
0.000532417
0.000532416
0.000532416
0.000532417
0.000532416
0.000532416
0.000532417
0.000532416
0.000532416
0.000532416
0.000681718
0.000681718
0.000681718
0.000681718
0.000681718
0.000681718
0.000681718
0.000681718
0.000681718
0.000681718
0.000681718
0.000681718
0.000681718
0.000681718
0.000681718
0.000681718
0.000872532
0.000872532
0.000872532
0.000872532
0.000872532
0.000872532
0.000872532
0.000872532
0.000872532
0.000872532
0.000872532
0.000872532
0.000872532
0.000872532
0.000872532
0.000872532
0.00111617
0.00111617
0.00111617
0.00111617
0.00111617
0.00111617
0.00111617
0.00111617
0.00111617
0.00111617
0.00111617
0.00111617
0.00111617
0.00111617
0.00111617
0.00111617
0.00142687
0.00142687
0.00142687
0.00142687
0.00142687
0.00142687
0.00142687
0.00142687
0.00142687
0.00142687
0.00142687
0.00142687
0.00142687
0.00142687
0.00142687
0.00142687
0.00182247
0.00182247
0.00182247
0.00182247
0.00182247
0.00182247
0.00182247
0.00182247
0.00182247
0.00182247
0.00182247
0.00182247
0.00182247
0.00182247
0.00182247
0.00182247
0.00232513
0.00232513
0.00232513
0.00232513
0.00232513
0.00232513
0.00232513
0.00232513
0.00232513
0.00232513
0.00232513
0.00232513
0.00232513
0.00232513
0.00232513
0.00232513
0.00296209
0.00296209
0.00296209
0.00296209
0.00296209
0.00296209
0.00296209
0.00296209
0.00296209
0.00296209
0.00296209
0.00296209
0.00296209
0.00296209
0.00296209
0.00296209
0.0037664
0.0037664
0.0037664
0.0037664
0.0037664
0.0037664
0.0037664
0.0037664
0.0037664
0.0037664
0.0037664
0.0037664
0.0037664
0.0037664
0.0037664
0.0037664
0.00477725
0.00477725
0.00477725
0.00477725
0.00477725
0.00477725
0.00477725
0.00477725
0.00477725
0.00477725
0.00477725
0.00477725
0.00477725
0.00477725
0.00477725
0.00477725
0.00603978
0.00603978
0.00603978
0.00603978
0.00603978
0.00603978
0.00603978
0.00603978
0.00603978
0.00603978
0.00603978
0.00603978
0.00603978
0.00603978
0.00603978
0.00603978
0.000202202
0.000204897
0.000205584
0.000208495
0.000217809
0.000207281
0.000223655
0.000208908
0.000192197
0.000175928
0.00016326
0.000151827
0.000138704
0.000127545
0.000124251
0.000130811
0.000135719
0.000259054
0.000262639
0.000263533
0.000267265
0.000279148
0.000265795
0.000286644
0.000267863
0.000246545
0.000225761
0.000209545
0.000194899
0.000178106
0.000163803
0.000159504
0.00016776
0.000173965
0.000331809
0.000336618
0.000337787
0.00034257
0.000357712
0.00034083
0.000367323
0.000343452
0.000316296
0.000289772
0.000269025
0.000250269
0.000228791
0.000210461
0.000204823
0.000215155
0.000222965
0.000424865
0.00043138
0.000432916
0.000439046
0.000458304
0.000437052
0.000470626
0.000440365
0.000405839
0.000372037
0.00034551
0.000321499
0.000294049
0.000270561
0.000263125
0.000275956
0.000285731
0.0005438
0.000552728
0.000554758
0.000562612
0.000587046
0.000560446
0.000602844
0.000564613
0.000520826
0.000477827
0.000443937
0.000413213
0.000378164
0.000348072
0.0003382
0.000353964
0.000366104
0.000695669
0.000708062
0.000710764
0.000720825
0.000751728
0.000718691
0.000771982
0.000723899
0.000668551
0.000613979
0.000570728
0.000531437
0.000486741
0.000448197
0.000434983
0.000454067
0.000468985
0.000889359
0.000906801
0.00091043
0.000923315
0.000962238
0.000921635
0.000988204
0.000928093
0.000858434
0.000789387
0.000734263
0.000684057
0.000627147
0.000577794
0.000559937
0.000582548
0.000600611
0.001136
0.00116092
0.00116584
0.00118233
0.00123109
0.00118192
0.00126438
0.00118984
0.00110267
0.00101566
0.000945532
0.00088144
0.00080913
0.000745961
0.00072156
0.000747497
0.000768908
0.00144943
0.00148558
0.00149233
0.00151344
0.00157406
0.00151576
0.00161672
0.00152532
0.0014171
0.00130804
0.00121902
0.00113731
0.00104568
0.000964866
0.000931108
0.000959341
0.000983913
0.00184668
0.00189993
0.00190931
0.00193631
0.00201092
0.00194398
0.0020656
0.00195526
0.00182232
0.0016866
0.00157396
0.00146995
0.00135425
0.00125094
0.00120359
0.00123153
0.0012583
0.00234841
0.00242803
0.00244127
0.00247576
0.00256629
0.00249332
0.00263638
0.00250617
0.0023453
0.00217805
0.00203607
0.00190398
0.00175856
0.0016266
0.00155921
0.00158145
0.00160799
0.0029792
0.00309994
0.00311887
0.00316292
0.00327056
0.00319813
0.00336036
0.00321195
0.00302143
0.00281814
0.00264012
0.00247283
0.00229121
0.00212284
0.00202545
0.00203163
0.00205286
0.00376736
0.00395284
0.00398036
0.00403651
0.00416067
0.00410254
0.0042757
0.0041159
0.00389753
0.00365519
0.00343357
0.00322249
0.00299757
0.00278305
0.00264013
0.00261133
0.00261749
0.00474402
0.00503226
0.00507287
0.00514435
0.00528073
0.00526333
0.00542806
0.0052733
0.00503591
0.00475532
0.00448206
0.00421704
0.00394174
0.00366893
0.00345599
0.00335867
0.00333196
0.00594048
0.00639297
0.00645378
0.00654458
0.00668194
0.00675358
0.00687057
0.00675458
0.00652025
0.00621003
0.00587761
0.00554706
0.00521558
0.00486949
0.00454764
0.00432358
0.00423241
0.00428764
0.0043732
0.00440121
0.00446556
0.00459051
0.00476057
0.00496506
0.00517112
0.00536669
0.00555624
0.00574573
0.00593193
0.00610844
0.00625409
0.00636273
0.00643233
0.00598568
0.00335687
0.00341721
0.00344252
0.00350069
0.00360502
0.00374183
0.00390073
0.00405963
0.0042111
0.00435822
0.00450452
0.004647
0.00478023
0.00489011
0.00497231
0.00502542
0.00475454
0.00262588
0.00266905
0.0026909
0.00274111
0.00282666
0.0029359
0.00305947
0.00318231
0.00329979
0.0034141
0.0035273
0.00363675
0.00373795
0.00382139
0.00388397
0.00392467
0.00376053
0.00205268
0.00208399
0.00210231
0.00214442
0.00221369
0.00230043
0.00239658
0.00249172
0.00258294
0.00267184
0.00275956
0.00284391
0.0029212
0.0029849
0.00303277
0.00306408
0.00296472
0.00160377
0.00162675
0.00164181
0.00167645
0.00173202
0.00180061
0.00187547
0.00194926
0.00202016
0.00208933
0.00215741
0.00222258
0.00228186
0.00233071
0.00236747
0.00239162
0.00233156
0.00125253
0.00126957
0.00128179
0.0013099
0.00135418
0.00140824
0.00146654
0.00152384
0.00157899
0.00163284
0.00168574
0.00173618
0.00178181
0.00181939
0.00184772
0.0018664
0.00183015
0.000977898
0.000990657
0.00100048
0.00102306
0.00105817
0.00110068
0.0011461
0.00119063
0.00123356
0.00127549
0.00131662
0.00135574
0.00139095
0.00141995
0.00144183
0.0014563
0.00143448
0.000763297
0.000772924
0.000780759
0.000798774
0.000826501
0.000859866
0.000895258
0.000929901
0.000963322
0.000995992
0.00102799
0.00105836
0.00108559
0.00110803
0.00112496
0.00113619
0.00112309
0.000595677
0.000602988
0.000609205
0.0006235
0.000645335
0.000671485
0.000699069
0.00072603
0.000752062
0.000777519
0.000802429
0.000826026
0.000847131
0.000864512
0.000877642
0.000886359
0.00087853
0.000464797
0.000470379
0.000475292
0.00048659
0.000503748
0.000524219
0.00054572
0.000566713
0.000586995
0.000606835
0.000626234
0.000644586
0.000660962
0.000674447
0.00068464
0.000691416
0.000686761
0.000362631
0.000366912
0.000370783
0.000379685
0.000393144
0.000409157
0.000425918
0.00044227
0.000458075
0.00047354
0.000488651
0.000502933
0.000515654
0.000526128
0.000534049
0.00053932
0.000536571
0.000282897
0.000286191
0.000289234
0.000296231
0.000306776
0.000319293
0.00033236
0.0003451
0.000357418
0.000369474
0.000381249
0.000392368
0.000402258
0.000410401
0.000416561
0.000420663
0.000419056
0.000220679
0.000223221
0.000225608
0.000231099
0.000239351
0.000249131
0.000259319
0.000269247
0.000278849
0.000288249
0.000297425
0.000306085
0.000313779
0.000320114
0.000324907
0.000328102
0.000327175
0.000172135
0.000174101
0.000175972
0.000180274
0.000186728
0.000194365
0.00020231
0.000210047
0.000217533
0.000224862
0.000232014
0.000238761
0.00024475
0.000249681
0.000253413
0.000255901
0.000255376
0.000134264
0.000135787
0.000137252
0.000140619
0.000145663
0.000151625
0.00015782
0.000163852
0.000169688
0.000175402
0.000180979
0.000186236
0.0001909
0.000194739
0.000197645
0.000199584
0.000199296
0.00594326
0.00594326
0.00594326
0.00594326
0.00594326
0.00594326
0.00594326
0.00594326
0.00594326
0.00594326
0.00594326
0.00594326
0.00594326
0.00594326
0.00594326
0.00594326
0.00456799
0.00456799
0.00456799
0.00456799
0.00456799
0.00456799
0.00456799
0.00456799
0.00456799
0.00456799
0.00456799
0.00456799
0.00456799
0.00456799
0.00456799
0.00456799
0.00352171
0.00352171
0.00352171
0.00352171
0.00352171
0.00352171
0.00352171
0.00352171
0.00352171
0.00352171
0.00352171
0.00352171
0.00352171
0.00352171
0.00352171
0.00352171
0.00272171
0.00272171
0.00272171
0.00272171
0.00272171
0.00272171
0.00272171