/*--------------------------------*- C++ -*----------------------------------*\
| =========                 |                                                 |
| \\      /  F ield         | OpenFOAM: The Open Source CFD Toolbox           |
|  \\    /   O peration     | Version:  2.3.x                                 |
|   \\  /    A nd           | Web:      www.OpenFOAM.org                      |
|    \\/     M anipulation  |                                                 |
\*---------------------------------------------------------------------------*/
FoamFile
{
    version     2.0;
    format      ascii;
    class       volSymmTensorField;
    location    "20";
    object      R;
}
// * * * * * * * * * * * * * * * * * * * * * * * * * * * * * * * * * * * * * //

dimensions      [0 2 -2 0 0 0 0];

internalField   nonuniform List<symmTensor> 
3
(
(8.445400000000000129e-02 -4.002699999999999878e-04 2.829700000000000029e-05 3.001400000000000096e-05 -3.827199999999999754e-07 2.785199999999999829e-02)
(1.743800000000000072e-01 -1.214299999999999971e-03 6.686500000000000440e-05 1.175600000000000061e-04 -1.096900000000000035e-06 5.356400000000000050e-02)
(3.212300000000000155e-01 -3.100900000000000184e-03 1.450599999999999969e-04 3.620399999999999964e-04 -2.628800000000000140e-06 9.094700000000000006e-02)
)
;

boundaryField
{
    movingWall
    {
        type            kqRWallFunction;
        value           uniform (0 0 0 0 0 0);
    }
    fixedWalls
    {
        type            kqRWallFunction;
        value           uniform (0 0 0 0 0 0);
    }
    frontAndBack
    {
        type            empty;
    }
}
