/*--------------------------------*- C++ -*----------------------------------*\
| =========                 |                                                 |
| \\      /  F ield         | OpenFOAM: The Open Source CFD Toolbox           |
|  \\    /   O peration     | Version:  2.3.x                                 |
|   \\  /    A nd           | Web:      www.OpenFOAM.org                      |
|    \\/     M anipulation  |                                                 |
\*---------------------------------------------------------------------------*/
FoamFile
{
    version     2.0;
    format      ascii;
    class       volSymmTensorField;
    location    "25";
    object      Tau;
}
// * * * * * * * * * * * * * * * * * * * * * * * * * * * * * * * * * * * * * //

dimensions      [0 2 -2 0 0 0 0];

internalField   nonuniform List<symmTensor> 
4
(
(0.000134029 6.52603e-06 0 0.000222434 0 0.000171712)
(0.000158926 -2.48196e-05 0 0.00020589 0 0.000180039)
(0.000210832 -1.80677e-05 0 0.000188057 0 0.000201275)
(0.00026382 1.8599e-05 0 0.000162855 0 0.000216637)
)
;

boundaryField
{
    movingWall
    {
        type            kqRWallFunction;
        value           nonuniform List<symmTensor> 
20
(
(0.00290724 -0.00900621 0 0.00432062 0 0.00355243)
(0.00562777 -0.0100529 0 0.00685485 0 0.00593737)
(0.00636552 -0.0107114 0 0.00782625 0 0.00695953)
(0.00627998 -0.0105707 0 0.00789559 0 0.00704393)
(0.00597296 -0.0100301 0 0.00762944 0 0.00679273)
(0.00570152 -0.00940416 0 0.00726929 0 0.00648963)
(0.00552887 -0.0088418 0 0.00691132 0 0.00622757)
(0.00544773 -0.00839113 0 0.00659468 0 0.00602851)
(0.00543769 -0.00805841 0 0.00633411 0 0.00589222)
(0.00548209 -0.0078367 0 0.00613342 0 0.00581303)
(0.00556804 -0.00771569 0 0.00599156 0 0.0057848)
(0.0056905 -0.00768646 0 0.00590526 0 0.00580191)
(0.00583163 -0.00774118 0 0.00587426 0 0.00586009)
(0.00597181 -0.00785925 0 0.00588115 0 0.00593677)
(0.00607958 -0.00803474 0 0.00591533 0 0.00602049)
(0.00626093 -0.00822621 0 0.00595716 0 0.00610268)
(0.00624597 -0.00854763 0 0.00604126 0 0.00621532)
(0.00723212 -0.00859571 0 0.00595927 0 0.00625803)
(0.0052262 -0.00962549 0 0.0059993 0 0.0067198)
(0.0133227 -0.0086585 0 0.00256762 0 0.00651447)
)
;
    }
    fixedWalls
    {
        type            kqRWallFunction;
        value           nonuniform List<symmTensor> 
60
(
(0.000134029 6.52603e-06 0 0.000222434 0 0.000171712)
(0.000258622 4.29143e-05 0 0.000296366 0 0.000277801)
(0.000453537 2.85713e-05 0 0.000332799 0 0.000393917)
(0.000725548 -4.91257e-05 0 0.000397203 0 0.000553041)
(0.00101256 -0.000193317 0 0.000509992 0 0.00074584)
(0.00120402 -0.000372912 0 0.000622724 0 0.000902587)
(0.00129796 -0.000550496 0 0.000743674 0 0.00101646)
(0.00132232 -0.000701074 0 0.000876024 0 0.00109734)
(0.00130352 -0.000812546 0 0.00101147 0 0.00115664)
(0.00125862 -0.000881908 0 0.00114965 0 0.00120295)
(0.00119381 -0.000905901 0 0.00129289 0 0.00123917)
(0.00110852 -0.000875936 0 0.00141786 0 0.00125766)
(0.00100362 -0.000784608 0 0.00148797 0 0.00124277)
(0.00087887 -0.000633425 0 0.00146166 0 0.0011705)
(0.00072482 -0.00043961 0 0.00128537 0 0.00100843)
(0.000528897 -0.000246744 0 0.000944597 0 0.00073744)
(0.000304604 -8.81781e-05 0 0.000478287 0 0.000408155)
(0.000294393 -4.07468e-05 0 0.00040543 0 0.000306791)
(0.000527247 -2.03342e-05 0 7.61914e-05 0 0.000398129)
(0.00290724 -0.00900621 0 0.00432062 0 0.00355243)
(0.000322775 -1.51616e-05 0 0.000185602 0 0.000242597)
(0.000293308 3.48664e-05 0 0.000228032 0 0.000257782)
(0.000249862 1.4979e-05 0 0.000309804 0 0.00028484)
(0.000237975 -5.48917e-05 0 0.000467059 0 0.000356956)
(0.000639363 -0.000265389 0 0.00132364 0 0.000986527)
(0.00114783 -0.000672408 0 0.00236985 0 0.00176428)
(0.00155557 -0.00115398 0 0.00305483 0 0.00230505)
(0.00190952 -0.00158052 0 0.0033775 0 0.00263312)
(0.00223609 -0.00189259 0 0.0034731 0 0.00283369)
(0.00253008 -0.00208836 0 0.00345785 0 0.00296609)
(0.00278971 -0.00219192 0 0.00340606 0 0.00306782)
(0.00302327 -0.00223093 0 0.00336048 0 0.00316338)
(0.0032434 -0.0022283 0 0.00334198 0 0.0032717)
(0.00346382 -0.00219815 0 0.00337037 0 0.00341105)
(0.00371893 -0.00214939 0 0.00349206 0 0.00360413)
(0.00407159 -0.00210203 0 0.00378084 0 0.00387747)
(0.00458235 -0.00213 0 0.00421278 0 0.00426504)
(0.00529365 -0.00241756 0 0.00432495 0 0.00481989)
(0.006808 -0.00358396 0 0.00349904 0 0.00559343)
(0.0133227 -0.0086585 0 0.00256762 0 0.00651447)
(0.000134029 6.52603e-06 0 0.000222434 0 0.000171712)
(0.000158926 -2.48196e-05 0 0.00020589 0 0.000180039)
(0.000210832 -1.80677e-05 0 0.000188057 0 0.000201275)
(0.00026382 1.8599e-05 0 0.000162855 0 0.000216637)
(0.00052385 9.60449e-05 0 0.000267637 0 0.000399483)
(0.00108153 0.000278656 0 0.000551762 0 0.000821507)
(0.00149175 0.00052562 0 0.000781544 0 0.00114055)
(0.0016671 0.00076161 0 0.000953468 0 0.00131033)
(0.00166315 0.000936415 0 0.0010965 0 0.00137546)
(0.00155459 0.00103356 0 0.00122118 0 0.00138101)
(0.00139219 0.00105722 0 0.00132733 0 0.001356)
(0.00122153 0.00101905 0 0.0014159 0 0.00131839)
(0.00106254 0.000927868 0 0.00149003 0 0.00127611)
(0.000910364 0.000782128 0 0.00153845 0 0.00122241)
(0.000776036 0.00058375 0 0.00152857 0 0.00114203)
(0.000663337 0.000351023 0 0.00140331 0 0.00101122)
(0.000548636 0.000127566 0 0.00110957 0 0.00081092)
(0.000445492 -1.93918e-05 0 0.000699161 0 0.000573085)
(0.000401393 -6.35891e-05 0 0.000379328 0 0.000394565)
(0.000322775 -1.51616e-05 0 0.000185602 0 0.000242597)
)
;
    }
    frontAndBack
    {
        type            empty;
    }
}


// ************************************************************************* //
