/*--------------------------------*- C++ -*----------------------------------*\
| =========                 |                                                 |
| \\      /  F ield         | OpenFOAM: The Open Source CFD Toolbox           |
|  \\    /   O peration     | Version:  2.3.x                                 |
|   \\  /    A nd           | Web:      www.OpenFOAM.org                      |
|    \\/     M anipulation  |                                                 |
\*---------------------------------------------------------------------------*/
FoamFile
{
    version     2.0;
    format      ascii;
    class       volSymmTensorField;
    location    "0";
    object      TauDNS;
}
// * * * * * * * * * * * * * * * * * * * * * * * * * * * * * * * * * * * * * //

dimensions      [0 2 -2 0 0 0 0];

internalField   nonuniform List<symmTensor> 
14751
(
(1.165937634616622903e-06 5.631771155184839627e-08 0.000000000000000000e+00 9.832703682124627905e-09 0.000000000000000000e+00 3.012942761970240125e-07)
(1.024186059420273408e-06 3.035278223098038285e-08 0.000000000000000000e+00 3.748982168879989140e-09 0.000000000000000000e+00 2.681434541263417405e-07)
(1.104392535128369844e-06 3.875563786969324896e-08 0.000000000000000000e+00 5.283563833646722307e-09 0.000000000000000000e+00 2.861833134140784483e-07)
(1.156175722078733896e-06 5.323643071035588208e-08 0.000000000000000000e+00 8.912958596489293454e-09 0.000000000000000000e+00 3.062069642862196181e-07)
(1.140259101072044271e-06 5.658697214333064717e-08 0.000000000000000000e+00 1.020209820840291177e-08 0.000000000000000000e+00 3.100744815605947525e-07)
(1.141900364457255567e-06 5.581236634369563691e-08 0.000000000000000000e+00 9.928390476225945800e-09 0.000000000000000000e+00 3.114110760568008047e-07)
(1.135005201928248007e-06 5.751826890386741410e-08 0.000000000000000000e+00 1.064630838287456268e-08 0.000000000000000000e+00 3.144120909507750335e-07)
(1.140917470961002510e-06 5.344343642161393592e-08 0.000000000000000000e+00 9.262992501858801448e-09 0.000000000000000000e+00 3.134787688926699207e-07)
(1.138388229308985707e-06 5.524096043963515190e-08 0.000000000000000000e+00 9.976548100083782291e-09 0.000000000000000000e+00 3.163491925359139649e-07)
(1.132201765480993466e-06 5.010282924669601370e-08 0.000000000000000000e+00 8.456370597153167360e-09 0.000000000000000000e+00 3.137586136142908155e-07)
(8.801870023310269604e-07 2.392766191265495084e-08 0.000000000000000000e+00 3.026509484143100242e-09 0.000000000000000000e+00 2.677180414832783591e-07)
(9.201544140843828135e-07 2.703412910997393425e-08 0.000000000000000000e+00 3.643020732256544414e-09 0.000000000000000000e+00 2.771054730533434490e-07)
(1.115847135660266801e-06 4.690364678304305641e-08 0.000000000000000000e+00 7.971513544084631060e-09 0.000000000000000000e+00 3.142724978720695203e-07)
(9.145669979542764525e-07 2.680831657636225776e-08 0.000000000000000000e+00 3.731846352023553197e-09 0.000000000000000000e+00 2.795866640834287744e-07)
(1.069011009802020845e-06 4.000083178200156032e-08 0.000000000000000000e+00 6.485546537992740052e-09 0.000000000000000000e+00 3.073317566705428896e-07)
(7.760660519175544310e-07 1.852233461165655919e-08 0.000000000000000000e+00 2.422914692433798903e-09 0.000000000000000000e+00 2.554077898280171721e-07)
(1.095269628781672775e-06 4.278585291361738924e-08 0.000000000000000000e+00 7.367558674741809358e-09 0.000000000000000000e+00 3.120919348985058806e-07)
(1.041118250094520194e-06 3.717151006000334372e-08 0.000000000000000000e+00 6.209824985944958459e-09 0.000000000000000000e+00 3.032975726773388990e-07)
(8.416873083911699170e-07 2.181355770730298467e-08 0.000000000000000000e+00 3.122581992390680761e-09 0.000000000000000000e+00 2.699989298404392078e-07)
(6.718479668994259627e-07 1.379660852330490585e-08 0.000000000000000000e+00 1.847384043340123973e-09 0.000000000000000000e+00 2.356176535970156594e-07)
(8.775326191672968633e-07 2.368438148787639397e-08 0.000000000000000000e+00 3.597289632052798305e-09 0.000000000000000000e+00 2.773017290070954363e-07)
(9.787399892002607715e-07 3.099935158355871802e-08 0.000000000000000000e+00 5.226677699383588398e-09 0.000000000000000000e+00 2.936064058371816121e-07)
(1.026539132117523817e-06 3.433779129647512613e-08 0.000000000000000000e+00 6.041360083989245859e-09 0.000000000000000000e+00 3.010438696255128214e-07)
(6.703265543325859394e-07 1.301645672812151259e-08 0.000000000000000000e+00 1.827482238212495195e-09 0.000000000000000000e+00 2.388780056210754157e-07)
(6.797217829990203638e-07 1.326598845294334678e-08 0.000000000000000000e+00 1.901107552784546687e-09 0.000000000000000000e+00 2.413194702027951751e-07)
(1.003061084993555934e-06 3.154676074797642855e-08 0.000000000000000000e+00 5.685747665831425679e-09 0.000000000000000000e+00 2.976124926234115009e-07)
(1.052875546331573302e-06 3.504780457754862856e-08 0.000000000000000000e+00 6.609973035703108536e-09 0.000000000000000000e+00 3.045395777890857823e-07)
(9.168137387491791706e-07 2.482474834052037515e-08 0.000000000000000000e+00 4.311037003498485861e-09 0.000000000000000000e+00 2.850875749609158468e-07)
(9.094854068185775218e-08 1.038423929004377678e-10 0.000000000000000000e+00 1.256626398878108678e-11 0.000000000000000000e+00 5.061479099482516121e-08)
(9.759896672485181461e-07 2.746215536051839597e-08 0.000000000000000000e+00 5.007663125057764315e-09 0.000000000000000000e+00 2.944778973837472396e-07)
(1.081197871667100412e-06 3.532623395088355374e-08 0.000000000000000000e+00 7.089151350820804792e-09 0.000000000000000000e+00 3.064827295547740509e-07)
(9.973896186578250603e-07 2.805771798107653118e-08 0.000000000000000000e+00 5.295339826607469166e-09 0.000000000000000000e+00 2.962077095578174428e-07)
(7.340622849111562764e-07 1.435221746950019306e-08 0.000000000000000000e+00 2.412619662526106218e-09 0.000000000000000000e+00 2.525865103320170165e-07)
(7.576883779251931698e-07 1.494247533016995373e-08 0.000000000000000000e+00 2.567016484207005986e-09 0.000000000000000000e+00 2.579991997258095757e-07)
(1.021924335600583401e-06 2.823572407868115538e-08 0.000000000000000000e+00 5.609363910177967081e-09 0.000000000000000000e+00 2.988181874395086801e-07)
(1.028526110442864436e-06 2.805080944435970404e-08 0.000000000000000000e+00 5.642524397336485281e-09 0.000000000000000000e+00 2.991304158134411847e-07)
(1.111522834221855822e-06 3.369669239815418465e-08 0.000000000000000000e+00 7.260744734560685610e-09 0.000000000000000000e+00 3.065137044677478981e-07)
(1.128462465807556318e-06 3.425134471080270995e-08 0.000000000000000000e+00 7.495084223718479925e-09 0.000000000000000000e+00 3.069866252474381870e-07)
(1.145091926269867229e-06 3.482189280663809593e-08 0.000000000000000000e+00 7.728804795866940688e-09 0.000000000000000000e+00 3.075593504491844907e-07)
(1.161212487838994263e-06 3.532014992980310018e-08 0.000000000000000000e+00 7.938948176600710713e-09 0.000000000000000000e+00 3.078565338992446158e-07)
(1.175963864898605015e-06 3.574303651783434941e-08 0.000000000000000000e+00 8.117732300741874465e-09 0.000000000000000000e+00 3.075561355442984928e-07)
(1.189383634292947748e-06 3.605749827975062016e-08 0.000000000000000000e+00 8.251027602033141551e-09 0.000000000000000000e+00 3.068327381778701240e-07)
(1.060711377065859080e-06 2.651806404272499716e-08 0.000000000000000000e+00 5.662930485964392914e-09 0.000000000000000000e+00 2.934545469871144591e-07)
(1.061443915477715010e-06 2.607925718719000382e-08 0.000000000000000000e+00 5.595358850352184601e-09 0.000000000000000000e+00 2.911996686409690221e-07)
(1.061828942903327074e-06 2.558902509021479558e-08 0.000000000000000000e+00 5.514333436812507013e-09 0.000000000000000000e+00 2.885465053406678641e-07)
(1.062257801373992470e-06 2.512646969254921891e-08 0.000000000000000000e+00 5.431244899434479222e-09 0.000000000000000000e+00 2.855900476120998527e-07)
(7.810650687137041859e-07 1.271049491361430755e-08 0.000000000000000000e+00 2.495528323441698689e-09 0.000000000000000000e+00 2.455455349570753096e-07)
(7.793092610496903682e-07 1.239970034204105158e-08 0.000000000000000000e+00 2.455187572236988586e-09 0.000000000000000000e+00 2.424922037532871460e-07)
(4.491750290922055413e-07 3.778660613682986405e-09 0.000000000000000000e+00 6.219049983463433616e-10 0.000000000000000000e+00 1.712848917818426081e-07)
(1.157598914217845830e-07 1.335821574455693578e-10 0.000000000000000000e+00 1.849790964672119266e-11 0.000000000000000000e+00 5.853094178604470979e-08)
(4.451309245995528756e-07 3.572458741633372818e-09 0.000000000000000000e+00 5.922370088815895998e-10 0.000000000000000000e+00 1.655104967216840655e-07)
(7.696454425789058285e-07 1.118820737764063366e-08 0.000000000000000000e+00 2.232502691089432108e-09 0.000000000000000000e+00 2.276808772507607585e-07)
(1.051676392180767147e-06 2.153526258067775400e-08 0.000000000000000000e+00 4.655602519012652393e-09 0.000000000000000000e+00 2.589831536865939051e-07)
(1.047829863478826838e-06 2.107724421359745877e-08 0.000000000000000000e+00 4.529936381214575533e-09 0.000000000000000000e+00 2.549185595898607441e-07)
(1.043861448799449379e-06 2.060481331151216368e-08 0.000000000000000000e+00 4.398752588865332461e-09 0.000000000000000000e+00 2.508098799780665537e-07)
(1.039386192409721955e-06 2.009942819503600414e-08 0.000000000000000000e+00 4.259705462498796832e-09 0.000000000000000000e+00 2.467154710922658271e-07)
(1.187754230517342177e-06 2.732379182018019948e-08 0.000000000000000000e+00 6.013271989714750728e-09 0.000000000000000000e+00 2.538866674129465996e-07)
(1.171774597939328003e-06 2.625183045266293143e-08 0.000000000000000000e+00 5.697907578090817306e-09 0.000000000000000000e+00 2.485565204033065580e-07)
(1.155800667236644698e-06 2.518214360387189965e-08 0.000000000000000000e+00 5.384534546844847372e-09 0.000000000000000000e+00 2.432929963465750370e-07)
(1.138788280917631929e-06 2.415562552759016872e-08 0.000000000000000000e+00 5.068581841799375720e-09 0.000000000000000000e+00 2.381054734952847767e-07)
(1.121310669131415274e-06 2.313687670940593301e-08 0.000000000000000000e+00 4.758995051318447190e-09 0.000000000000000000e+00 2.331759518368428007e-07)
(1.102787433715777459e-06 2.216415410732624303e-08 0.000000000000000000e+00 4.471746532356333205e-09 0.000000000000000000e+00 2.283638832487816946e-07)
(1.084108272782995208e-06 2.121431463659230799e-08 0.000000000000000000e+00 4.202730453596952461e-09 0.000000000000000000e+00 2.238289951925065217e-07)
(9.898806488440689029e-07 1.688486544129148183e-08 0.000000000000000000e+00 3.206856582442255611e-09 0.000000000000000000e+00 2.134968517910591685e-07)
(9.842174075119913665e-07 1.655122062068745752e-08 0.000000000000000000e+00 3.102153335214220498e-09 0.000000000000000000e+00 2.104540509769299851e-07)
(7.034770799171673700e-07 7.988557077647810379e-09 0.000000000000000000e+00 1.377866006244063312e-09 0.000000000000000000e+00 1.758138454248214425e-07)
(6.988092858849932539e-07 7.841798354310603031e-09 0.000000000000000000e+00 1.319107137012838518e-09 0.000000000000000000e+00 1.732897942844805209e-07)
(9.663899067499511028e-07 1.575391390130610562e-08 0.000000000000000000e+00 2.764817045490906817e-09 0.000000000000000000e+00 2.027566213953682936e-07)
(1.075730270854724891e-06 2.054187581954655881e-08 0.000000000000000000e+00 3.637752147914892369e-09 0.000000000000000000e+00 2.106968294759959210e-07)
(9.535629715987675913e-07 1.545401780974997093e-08 0.000000000000000000e+00 2.582702914548225427e-09 0.000000000000000000e+00 1.993468039191592238e-07)
(9.634173679532322555e-08 2.497396473750877612e-11 0.000000000000000000e+00 7.713210806436882505e-12 0.000000000000000000e+00 3.748875452443058274e-08)
(9.395032986537579895e-07 1.515217206243654309e-08 0.000000000000000000e+00 2.412414783369845038e-09 0.000000000000000000e+00 1.967762738999361095e-07)
(1.069604837710945212e-06 2.083575351351601997e-08 0.000000000000000000e+00 3.380822879402002931e-09 0.000000000000000000e+00 2.084812954908157929e-07)
(1.012856309000647858e-06 1.861085904545377161e-08 0.000000000000000000e+00 2.918303496018029896e-09 0.000000000000000000e+00 2.032065651835660005e-07)
(6.561201211273274654e-07 7.196394155808243350e-09 0.000000000000000000e+00 9.886860730381559043e-10 0.000000000000000000e+00 1.608002478375653489e-07)
(6.512339372595305540e-07 7.135353945704825164e-09 0.000000000000000000e+00 9.588007965118354857e-10 0.000000000000000000e+00 1.600757951674865852e-07)
(1.064037271652653171e-06 2.130949082498321366e-08 0.000000000000000000e+00 3.201510055684432790e-09 0.000000000000000000e+00 2.103388565064917637e-07)
(1.012373783853581482e-06 1.927507080326682240e-08 0.000000000000000000e+00 2.810025066659628197e-09 0.000000000000000000e+00 2.061080728223687555e-07)
(8.924868821660039376e-07 1.436429671031752873e-08 0.000000000000000000e+00 1.964340643882467971e-09 0.000000000000000000e+00 1.945736988522694328e-07)
(8.740883008855032130e-07 1.395320196494852344e-08 0.000000000000000000e+00 1.860204990912004206e-09 0.000000000000000000e+00 1.933895071641112554e-07)
(1.069072275683722425e-06 2.227337468987029890e-08 0.000000000000000000e+00 3.104933845278716455e-09 0.000000000000000000e+00 2.173626251999393232e-07)
(1.208123018243168108e-06 3.091988179633035579e-08 0.000000000000000000e+00 4.507040398410361421e-09 0.000000000000000000e+00 2.341312163417679573e-07)
(8.235676896825096516e-07 1.279749747839216981e-08 0.000000000000000000e+00 1.576372040811736939e-09 0.000000000000000000e+00 1.907115962625189999e-07)
(1.172305860305126319e-06 2.952458555018359183e-08 0.000000000000000000e+00 4.131276462300323290e-09 0.000000000000000000e+00 2.348865607652058815e-07)
(9.765519643712489526e-07 1.933783004829803331e-08 0.000000000000000000e+00 2.457011662174418288e-09 0.000000000000000000e+00 2.137733095289254892e-07)
(1.241951829470051820e-06 3.671040167620914060e-08 0.000000000000000000e+00 5.311319462754261932e-09 0.000000000000000000e+00 2.488055747612472515e-07)
(1.111638174087957238e-06 2.728240624160618508e-08 0.000000000000000000e+00 3.589023449680924119e-09 0.000000000000000000e+00 2.355175656520218376e-07)
(7.317280253054219067e-07 1.082235913354268790e-08 0.000000000000000000e+00 1.180429949887971012e-09 0.000000000000000000e+00 1.852131325207035596e-07)
(1.184458726441525497e-06 3.404789288709622281e-08 0.000000000000000000e+00 4.632080547825133476e-09 0.000000000000000000e+00 2.511132576728490251e-07)
(1.256118232888618235e-06 4.520116884399392160e-08 0.000000000000000000e+00 6.890799345208323891e-09 0.000000000000000000e+00 2.671243325033337814e-07)
(1.256029299030196728e-06 4.699628099410373053e-08 0.000000000000000000e+00 7.216884307028315982e-09 0.000000000000000000e+00 2.714724832021194145e-07)
(1.243297711424706427e-06 4.604460042338672332e-08 0.000000000000000000e+00 6.938898742149147857e-09 0.000000000000000000e+00 2.729128860345165000e-07)
(1.229482956601704304e-06 4.510856772075995033e-08 0.000000000000000000e+00 6.682657345029786175e-09 0.000000000000000000e+00 2.741117860476727391e-07)
(1.214668363939529052e-06 4.422230613029227104e-08 0.000000000000000000e+00 6.446961229760202135e-09 0.000000000000000000e+00 2.750593662518763699e-07)
(1.202101934118325340e-06 4.368739905178804852e-08 0.000000000000000000e+00 6.289939292621503523e-09 0.000000000000000000e+00 2.767896477773594802e-07)
(1.209204928819900878e-06 4.964560628474031621e-08 0.000000000000000000e+00 7.722725402816762622e-09 0.000000000000000000e+00 2.855550756010101622e-07)
(1.198858704392935395e-06 4.962160319997052439e-08 0.000000000000000000e+00 7.700706977952223573e-09 0.000000000000000000e+00 2.876207285455647341e-07)
(1.190741087073038757e-06 4.997446038033932888e-08 0.000000000000000000e+00 7.783909279563928532e-09 0.000000000000000000e+00 2.905541988340015034e-07)
(1.171397980734982981e-06 5.550852141017845140e-08 0.000000000000000000e+00 9.547221678228512563e-09 0.000000000000000000e+00 2.974500627849768981e-07)
(3.550275272203169958e-06 1.714891179086558999e-07 0.000000000000000000e+00 2.994123766751747222e-08 0.000000000000000000e+00 9.174478451246837968e-07)
(3.118649189583017555e-06 9.242518133434648654e-08 0.000000000000000000e+00 1.141581863683207912e-08 0.000000000000000000e+00 8.165021898870990205e-07)
(3.368378668227907267e-06 1.182060311647127164e-07 0.000000000000000000e+00 1.611522635185390124e-08 0.000000000000000000e+00 8.728667808815769885e-07)
(3.526312543579706691e-06 1.623749087084808368e-07 0.000000000000000000e+00 2.718589284281101214e-08 0.000000000000000000e+00 9.339451858961013266e-07)
(3.483653204294861769e-06 1.728448049565376452e-07 0.000000000000000000e+00 3.115592704390773068e-08 0.000000000000000000e+00 9.472845955225123262e-07)
(3.494208223220701011e-06 1.707926856413439215e-07 0.000000000000000000e+00 3.038346214427580667e-08 0.000000000000000000e+00 9.529360748042635086e-07)
(3.478766393176509391e-06 1.762996437871334630e-07 0.000000000000000000e+00 3.263376372582308852e-08 0.000000000000000000e+00 9.636860239965046113e-07)
(3.502618220362883481e-06 1.640782879444389874e-07 0.000000000000000000e+00 2.843995573955321859e-08 0.000000000000000000e+00 9.623953674650874915e-07)
(3.500540003815642053e-06 1.698724343027041247e-07 0.000000000000000000e+00 3.068055772476312223e-08 0.000000000000000000e+00 9.727858830716758871e-07)
(3.487195733603571033e-06 1.543228126645122806e-07 0.000000000000000000e+00 2.604778776401507370e-08 0.000000000000000000e+00 9.663886529919832540e-07)
(2.715415489601187610e-06 7.381953517731817093e-08 0.000000000000000000e+00 9.337338401986523711e-09 0.000000000000000000e+00 8.259225727066905325e-07)
(2.844065286931535577e-06 8.359836597965615731e-08 0.000000000000000000e+00 1.126885325558257601e-08 0.000000000000000000e+00 8.564014721439284853e-07)
(3.453569056362444383e-06 1.451716908405661799e-07 0.000000000000000000e+00 2.467355897227129931e-08 0.000000000000000000e+00 9.726808667014407587e-07)
(2.835948443101754382e-06 8.315224496888297850e-08 0.000000000000000000e+00 1.157656324263400357e-08 0.000000000000000000e+00 8.668717139134774934e-07)
(3.319314602770774948e-06 1.242063448296479644e-07 0.000000000000000000e+00 2.013878594372720450e-08 0.000000000000000000e+00 9.542723336009144223e-07)
(2.414098563006497034e-06 5.762713987130001612e-08 0.000000000000000000e+00 7.538688445354545069e-09 0.000000000000000000e+00 7.944371489507654090e-07)
(3.411791109201955451e-06 1.332806988562324435e-07 0.000000000000000000e+00 2.295083655396006913e-08 0.000000000000000000e+00 9.721707105287372728e-07)
(3.243667190831996159e-06 1.158504809287923021e-07 0.000000000000000000e+00 1.935818063612200627e-08 0.000000000000000000e+00 9.448647511959765116e-07)
(2.626075454480925238e-06 6.805889203189257004e-08 0.000000000000000000e+00 9.742601423175349461e-09 0.000000000000000000e+00 8.423988774064204126e-07)
(2.099978106238796164e-06 4.313606023572382558e-08 0.000000000000000000e+00 5.776777983876399215e-09 0.000000000000000000e+00 7.363971792367044032e-07)
(2.746686910792818234e-06 7.413259336370677457e-08 0.000000000000000000e+00 1.125965677025918697e-08 0.000000000000000000e+00 8.679562498858668635e-07)
(3.068768564769551087e-06 9.721492031918910796e-08 0.000000000000000000e+00 1.639258671068952822e-08 0.000000000000000000e+00 9.205188319857336739e-07)
(3.218614063507038860e-06 1.076801919920993833e-07 0.000000000000000000e+00 1.894657386611303645e-08 0.000000000000000000e+00 9.438356509696018005e-07)
(2.104827923433859929e-06 4.087179475150273594e-08 0.000000000000000000e+00 5.738329001718748619e-09 0.000000000000000000e+00 7.500777119367821881e-07)
(2.137728638213752789e-06 4.172166516474124156e-08 0.000000000000000000e+00 5.979020993224341304e-09 0.000000000000000000e+00 7.589507275440104507e-07)
(3.160095420711574105e-06 9.940754723945208195e-08 0.000000000000000000e+00 1.791842670302868284e-08 0.000000000000000000e+00 9.375421296177372738e-07)
(3.316989858194128112e-06 1.104344315955041543e-07 0.000000000000000000e+00 2.082954188958297023e-08 0.000000000000000000e+00 9.593581293930651345e-07)
(2.892547345753353593e-06 7.832208101433348574e-08 0.000000000000000000e+00 1.360132174603627920e-08 0.000000000000000000e+00 8.994512990015941933e-07)
(1.462284577992491184e-06 1.928017912563669005e-08 0.000000000000000000e+00 2.607786363524658844e-09 0.000000000000000000e+00 5.927429098192575359e-07)
(3.084127348505022574e-06 8.678041093922982850e-08 0.000000000000000000e+00 1.582421547518102225e-08 0.000000000000000000e+00 9.305501557325523790e-07)
(3.416585274467710609e-06 1.116308992847813638e-07 0.000000000000000000e+00 2.240171826859160032e-08 0.000000000000000000e+00 9.684854253929933101e-07)
(3.156738143051746695e-06 8.880267741009965449e-08 0.000000000000000000e+00 1.675975055121120906e-08 0.000000000000000000e+00 9.374974007504121262e-07)
(2.323307131743611904e-06 4.542476829096423836e-08 0.000000000000000000e+00 7.635941231894473868e-09 0.000000000000000000e+00 7.994363052007657680e-07)
(2.398083716133032213e-06 4.729293441998388054e-08 0.000000000000000000e+00 8.124607172514481138e-09 0.000000000000000000e+00 8.165674671321177462e-07)
(3.239500143853606194e-06 8.950724532941255321e-08 0.000000000000000000e+00 1.778168359526282107e-08 0.000000000000000000e+00 9.472536541831715452e-07)
(3.260427770103636483e-06 8.892106593861359712e-08 0.000000000000000000e+00 1.788680233955531844e-08 0.000000000000000000e+00 9.482434181285374984e-07)
(3.523527384483019307e-06 1.068185149021407610e-07 0.000000000000000000e+00 2.301656080855565070e-08 0.000000000000000000e+00 9.716484431626881478e-07)
(3.577226016609685592e-06 1.085767627332364435e-07 0.000000000000000000e+00 2.375941698918580309e-08 0.000000000000000000e+00 9.731476020343062493e-07)
(3.635666865906338125e-06 1.105595096610610645e-07 0.000000000000000000e+00 2.453895522687423570e-08 0.000000000000000000e+00 9.765009376760290654e-07)
(3.686849648888310242e-06 1.121414760271097437e-07 0.000000000000000000e+00 2.520616046070385928e-08 0.000000000000000000e+00 9.774444951299698966e-07)
(3.733685271052568528e-06 1.134841409441087767e-07 0.000000000000000000e+00 2.577380005485197975e-08 0.000000000000000000e+00 9.764907303530161533e-07)
(3.776293038879601474e-06 1.144825570381928095e-07 0.000000000000000000e+00 2.619701263645169923e-08 0.000000000000000000e+00 9.741939437146066250e-07)
(3.367758819499085345e-06 8.419519429671436707e-08 0.000000000000000000e+00 1.797985680514929548e-08 0.000000000000000000e+00 9.317199598920167409e-07)
(3.370083326829352836e-06 8.280194482425473369e-08 0.000000000000000000e+00 1.776531299872678485e-08 0.000000000000000000e+00 9.245604745932262884e-07)
(3.371306893717609420e-06 8.124515466142104261e-08 0.000000000000000000e+00 1.750800866187735468e-08 0.000000000000000000e+00 9.161351544564972304e-07)
(3.372668519361971654e-06 7.977654127383302273e-08 0.000000000000000000e+00 1.724420255570214934e-08 0.000000000000000000e+00 9.067484011682949246e-07)
(2.479881593165676895e-06 4.035582135071999387e-08 0.000000000000000000e+00 7.923302426926326708e-09 0.000000000000000000e+00 7.796070734886092096e-07)
(2.474306903832433402e-06 3.936904858597503918e-08 0.000000000000000000e+00 7.795220541851388842e-09 0.000000000000000000e+00 7.699127469165830329e-07)
(1.592479140313475386e-06 1.621253177568402067e-08 0.000000000000000000e+00 2.879681789692960936e-09 0.000000000000000000e+00 5.781552885949829847e-07)
(1.592161224304117575e-06 1.591918540933375517e-08 0.000000000000000000e+00 2.843356303629593721e-09 0.000000000000000000e+00 5.702833391820681281e-07)
(1.584617576759920961e-06 1.549032726168980674e-08 0.000000000000000000e+00 2.771294966908437549e-09 0.000000000000000000e+00 5.600363727702991199e-07)
(2.443624280187697182e-06 3.552255842400423018e-08 0.000000000000000000e+00 7.088196044207992811e-09 0.000000000000000000e+00 7.228867852710682456e-07)
(3.339072545173486504e-06 6.837445869364266004e-08 0.000000000000000000e+00 1.478153799786318196e-08 0.000000000000000000e+00 8.222715129548249268e-07)
(3.326859816544827044e-06 6.692025037816292824e-08 0.000000000000000000e+00 1.438254801035434118e-08 0.000000000000000000e+00 8.093664266976989273e-07)
(3.314260099937804778e-06 6.542028226404230176e-08 0.000000000000000000e+00 1.396603946964554877e-08 0.000000000000000000e+00 7.963213689302539466e-07)
(3.300048330699470851e-06 6.381534345822470032e-08 0.000000000000000000e+00 1.352446955008309111e-08 0.000000000000000000e+00 7.833188312033656196e-07)
(3.770597602009187698e-06 8.672672334529106918e-08 0.000000000000000000e+00 1.908564545398655059e-08 0.000000000000000000e+00 8.060486410525972934e-07)
(3.720384348456866241e-06 8.334956168719359255e-08 0.000000000000000000e+00 1.809085656043590857e-08 0.000000000000000000e+00 7.891669522803920192e-07)
(3.669667118475852242e-06 7.995330594228251283e-08 0.000000000000000000e+00 1.709589718623008979e-08 0.000000000000000000e+00 7.724552634002717109e-07)
(3.615652791912994705e-06 7.669411105008846355e-08 0.000000000000000000e+00 1.609274734771085237e-08 0.000000000000000000e+00 7.559848783474273289e-07)
(3.554554821146319582e-06 7.334389916881131297e-08 0.000000000000000000e+00 1.508601431267834927e-08 0.000000000000000000e+00 7.391677673227361961e-07)
(3.495836164878752587e-06 7.026036852021892311e-08 0.000000000000000000e+00 1.417543650756851704e-08 0.000000000000000000e+00 7.239135098985837417e-07)
(3.436623224721837051e-06 6.724937739799257829e-08 0.000000000000000000e+00 1.332265553790134018e-08 0.000000000000000000e+00 7.095379147601924192e-07)
(3.137921656835462744e-06 5.352502344888998273e-08 0.000000000000000000e+00 1.016573536634118860e-08 0.000000000000000000e+00 6.767850201776067168e-07)
(3.119969181812778616e-06 5.246736936757531197e-08 0.000000000000000000e+00 9.833826072628341803e-09 0.000000000000000000e+00 6.671393415968179542e-07)
(2.226504957937645006e-06 2.528378315075316729e-08 0.000000000000000000e+00 4.360945909762088069e-09 0.000000000000000000e+00 5.564508207695124851e-07)
(2.211731389825814959e-06 2.481929179139094156e-08 0.000000000000000000e+00 4.174974088645277020e-09 0.000000000000000000e+00 5.484621989103340569e-07)
(3.058624054863334139e-06 4.986113749762957309e-08 0.000000000000000000e+00 8.750645948977974224e-09 0.000000000000000000e+00 6.417247067162859768e-07)
(3.399307655900606226e-06 6.491232758976094435e-08 0.000000000000000000e+00 1.149529678740996367e-08 0.000000000000000000e+00 6.658019811440834070e-07)
(3.013258990251817932e-06 4.883469627880523820e-08 0.000000000000000000e+00 8.161341209971611656e-09 0.000000000000000000e+00 6.299359003844829634e-07)
(1.429005801485574525e-06 1.093129465302551156e-08 0.000000000000000000e+00 1.524499902244625345e-09 0.000000000000000000e+00 3.974235902853062870e-07)
(2.964132907252292327e-06 4.780510285698223894e-08 0.000000000000000000e+00 7.611168641531056340e-09 0.000000000000000000e+00 6.208291441542327350e-07)
(3.369788922651907640e-06 6.565520064864906836e-08 0.000000000000000000e+00 1.065368184365260407e-08 0.000000000000000000e+00 6.567656284665886748e-07)
(3.191058083022312882e-06 5.864785905039171208e-08 0.000000000000000000e+00 9.196866223845654919e-09 0.000000000000000000e+00 6.401539770513158487e-07)
(2.063500489388782824e-06 2.263269166497301469e-08 0.000000000000000000e+00 3.109431896914685664e-09 0.000000000000000000e+00 5.057171856195010089e-07)
(2.044877094792629104e-06 2.240504258101017129e-08 0.000000000000000000e+00 3.010648661754558406e-09 0.000000000000000000e+00 5.026382751481878805e-07)
(3.341580366025531313e-06 6.693317289392886991e-08 0.000000000000000000e+00 1.005633242776092013e-08 0.000000000000000000e+00 6.605154981316902923e-07)
(3.174316464565629805e-06 6.044965893650280623e-08 0.000000000000000000e+00 8.813127261686678283e-09 0.000000000000000000e+00 6.462036584154459280e-07)
(2.793480630581876754e-06 4.496027217640528614e-08 0.000000000000000000e+00 6.148414876199867015e-09 0.000000000000000000e+00 6.090130181602392721e-07)
(2.731542920597086512e-06 4.360404403561920320e-08 0.000000000000000000e+00 5.813212343405984528e-09 0.000000000000000000e+00 6.043437874376457210e-07)
(3.340867005253496757e-06 6.960520520133041031e-08 0.000000000000000000e+00 9.703158586312945349e-09 0.000000000000000000e+00 6.792568201913265988e-07)
(3.769389781268294251e-06 9.647137026373325997e-08 0.000000000000000000e+00 1.406235423298001945e-08 0.000000000000000000e+00 7.304900481850597986e-07)
(2.565430288693836665e-06 3.986466624985229891e-08 0.000000000000000000e+00 4.910497734085184453e-09 0.000000000000000000e+00 5.940674344327503845e-07)
(3.645901117506372209e-06 9.182284973325545432e-08 0.000000000000000000e+00 1.284861515442047174e-08 0.000000000000000000e+00 7.304964279845268218e-07)
(3.033104742095233044e-06 6.007878598234699573e-08 0.000000000000000000e+00 7.634038811279244443e-09 0.000000000000000000e+00 6.638854327536289275e-07)
(3.850108685158255240e-06 1.138047363886623128e-07 0.000000000000000000e+00 1.646579600088088564e-08 0.000000000000000000e+00 7.712944034604250382e-07)
(3.440577102688815965e-06 8.444099003827434674e-08 0.000000000000000000e+00 1.110848714836340815e-08 0.000000000000000000e+00 7.289263117612030607e-07)
(2.261070799365619968e-06 3.344175991534393948e-08 0.000000000000000000e+00 3.647647333498410898e-09 0.000000000000000000e+00 5.723106360163169764e-07)
(3.654110528089484324e-06 1.050403702733477346e-07 0.000000000000000000e+00 1.429058162192838865e-08 0.000000000000000000e+00 7.746828140978173660e-07)
(3.869120948100686923e-06 1.392744736400312790e-07 0.000000000000000000e+00 2.123653212140066949e-08 0.000000000000000000e+00 8.227932581789345296e-07)
(3.862336628543987162e-06 1.445172525719103037e-07 0.000000000000000000e+00 2.219303299472584963e-08 0.000000000000000000e+00 8.347725968396954683e-07)
(3.816983115032560682e-06 1.413613832374932723e-07 0.000000000000000000e+00 2.130360859478123912e-08 0.000000000000000000e+00 8.378383115415911769e-07)