/*--------------------------------*- C++ -*----------------------------------*\
| =========                 |                                                 |
| \\      /  F ield         | OpenFOAM: The Open Source CFD Toolbox           |
|  \\    /   O peration     | Version:  2.3.x                                 |
|   \\  /    A nd           | Web:      www.OpenFOAM.org                      |
|    \\/     M anipulation  |                                                 |
\*---------------------------------------------------------------------------*/
FoamFile
{
    version     2.0;
    format      ascii;
    class       volSymmTensorField;
    location    "0";
    object      TauDNS;
}
// * * * * * * * * * * * * * * * * * * * * * * * * * * * * * * * * * * * * * //

dimensions      [0 2 -2 0 0 0 0];

internalField   nonuniform List<symmTensor> 
14751
(
(1.500488732841208607e-06 8.638720213465146057e-08 0.000000000000000000e+00 1.931381531483210851e-08 0.000000000000000000e+00 4.197537290637431046e-07)
(1.998056764109585576e-06 7.040550669024085880e-08 0.000000000000000000e+00 8.855683991678842833e-09 0.000000000000000000e+00 4.360400281846707861e-07)
(1.912716404143703927e-06 7.972453934904115748e-08 0.000000000000000000e+00 1.179030431040863806e-08 0.000000000000000000e+00 4.423853549546789904e-07)
(1.593558884555006916e-06 8.728258338213126194e-08 0.000000000000000000e+00 1.799650965675768740e-08 0.000000000000000000e+00 4.335463866968397985e-07)
(1.480487873257116220e-06 8.725372268835759594e-08 0.000000000000000000e+00 1.993849864797161473e-08 0.000000000000000000e+00 4.275283079812925039e-07)
(1.510245020598994385e-06 8.779270801578363538e-08 0.000000000000000000e+00 1.952797481235944797e-08 0.000000000000000000e+00 4.316601879883049457e-07)
(1.463315910501246083e-06 8.800530280637452857e-08 0.000000000000000000e+00 2.060954111341491231e-08 0.000000000000000000e+00 4.308149134097978342e-07)
(1.588819012483593845e-06 8.831577506304480710e-08 0.000000000000000000e+00 1.848242921824311520e-08 0.000000000000000000e+00 4.411358621983625325e-07)
(1.543956832391121764e-06 8.888998027658794570e-08 0.000000000000000000e+00 1.962040199011162695e-08 0.000000000000000000e+00 4.398922542165597233e-07)
(1.677406665707276067e-06 8.799678296418037698e-08 0.000000000000000000e+00 1.719503505851027390e-08 0.000000000000000000e+00 4.494860106545599191e-07)
(1.874098418168153998e-06 6.016782794010031609e-08 0.000000000000000000e+00 7.188944952318882270e-09 0.000000000000000000e+00 4.388850133463656917e-07)
(1.882422803669480648e-06 6.505186511739950012e-08 0.000000000000000000e+00 8.421620637744864193e-09 0.000000000000000000e+00 4.457732744064837714e-07)
(1.749163368991559018e-06 8.724283196959189618e-08 0.000000000000000000e+00 1.641673230069386530e-08 0.000000000000000000e+00 4.564444711233989845e-07)
(1.881667818813049840e-06 6.531278427312195679e-08 0.000000000000000000e+00 8.633848459358079809e-09 0.000000000000000000e+00 4.489007182744869692e-07)
(1.851852333984743347e-06 8.256774419509175155e-08 0.000000000000000000e+00 1.393632060849328818e-08 0.000000000000000000e+00 4.606565477772162745e-07)
(1.765282273600427803e-06 5.057381460593063078e-08 0.000000000000000000e+00 5.948657606638467769e-09 0.000000000000000000e+00 4.295310674084193437e-07)
(1.826269768551257314e-06 8.563172221202106136e-08 0.000000000000000000e+00 1.557403535936027478e-08 0.000000000000000000e+00 4.614365648748379796e-07)
(1.869984055048387140e-06 7.969477238081475686e-08 0.000000000000000000e+00 1.345249432595500594e-08 0.000000000000000000e+00 4.613863002755716371e-07)
(1.837250445919479348e-06 5.759335859646559963e-08 0.000000000000000000e+00 7.467432958986600851e-09 0.000000000000000000e+00 4.456378188937927507e-07)
(1.590522871199299351e-06 3.961387484867810967e-08 0.000000000000000000e+00 4.635026732286719691e-09 0.000000000000000000e+00 4.096758270166533589e-07)
(1.869327070610760501e-06 6.119119876531728206e-08 0.000000000000000000e+00 8.429997298364810354e-09 0.000000000000000000e+00 4.527145517835504485e-07)
(1.896994853627453284e-06 7.210742859179554562e-08 0.000000000000000000e+00 1.156135462891208062e-08 0.000000000000000000e+00 4.608380934030750343e-07)
(1.912048900050973178e-06 7.703529132804384126e-08 0.000000000000000000e+00 1.308786757791724750e-08 0.000000000000000000e+00 4.647191916780362408e-07)
(1.603353596793688072e-06 3.858565759827985038e-08 0.000000000000000000e+00 4.633905002988444564e-09 0.000000000000000000e+00 4.163499055698134818e-07)
(1.619525565952794966e-06 3.924203045205779595e-08 0.000000000000000000e+00 4.793128222001913880e-09 0.000000000000000000e+00 4.197233695493957283e-07)
(1.937110250385273962e-06 7.371356629285820852e-08 0.000000000000000000e+00 1.238377280362670618e-08 0.000000000000000000e+00 4.662732220115330884e-07)
(1.950596180608087623e-06 7.884315365539980211e-08 0.000000000000000000e+00 1.408754969996208258e-08 0.000000000000000000e+00 4.692887855516966215e-07)
(1.918062766182561579e-06 6.381780047948408153e-08 0.000000000000000000e+00 9.786436994253347407e-09 0.000000000000000000e+00 4.617019357069284466e-07)
(2.407988805229437413e-07 2.924952765995056224e-10 0.000000000000000000e+00 5.749404128907514453e-11 0.000000000000000000e+00 1.093837092946420106e-07)
(1.993322716193069160e-06 6.966288839523249226e-08 0.000000000000000000e+00 1.122132182671627119e-08 0.000000000000000000e+00 4.721344043023573779e-07)
(2.002531905200972014e-06 8.070640618241522739e-08 0.000000000000000000e+00 1.509246499312610239e-08 0.000000000000000000e+00 4.761723557511928381e-07)
(2.029921005321829004e-06 7.175336410316566582e-08 0.000000000000000000e+00 1.191778393519796792e-08 0.000000000000000000e+00 4.782922171307544366e-07)
(1.738059358614304598e-06 4.372136735588205025e-08 0.000000000000000000e+00 6.023359554810993319e-09 0.000000000000000000e+00 4.431716674332384821e-07)
(1.792568247558840480e-06 4.593677777399102119e-08 0.000000000000000000e+00 6.420262756606564129e-09 0.000000000000000000e+00 4.517491411676889781e-07)
(2.087906873728785665e-06 7.429077216134560860e-08 0.000000000000000000e+00 1.277604816342115534e-08 0.000000000000000000e+00 4.858238651667691768e-07)
(2.107284828458654521e-06 7.458196949642300066e-08 0.000000000000000000e+00 1.293897082522410504e-08 0.000000000000000000e+00 4.883242354618151523e-07)
(2.117729669516316571e-06 8.272196277494929099e-08 0.000000000000000000e+00 1.606233103854409675e-08 0.000000000000000000e+00 4.897520407595205106e-07)
(2.138488943780023493e-06 8.400753697677269715e-08 0.000000000000000000e+00 1.659071423069537983e-08 0.000000000000000000e+00 4.922355738806799555e-07)
(2.161006043746068888e-06 8.545343244036504058e-08 0.000000000000000000e+00 1.712069679771589712e-08 0.000000000000000000e+00 4.947763432958780943e-07)
(2.184632095998544561e-06 8.687706755833735375e-08 0.000000000000000000e+00 1.764920013954588779e-08 0.000000000000000000e+00 4.971018481994982864e-07)
(2.207677540973179344e-06 8.824428404420131962e-08 0.000000000000000000e+00 1.816616979433632400e-08 0.000000000000000000e+00 4.988406699485452173e-07)
(2.230121226425418236e-06 8.950392303417946412e-08 0.000000000000000000e+00 1.862940930488486286e-08 0.000000000000000000e+00 5.000870980800052080e-07)
(2.259889298982711204e-06 7.649499355994199446e-08 0.000000000000000000e+00 1.382270279570043957e-08 0.000000000000000000e+00 5.043514748647446575e-07)
(2.282459448825954560e-06 7.652630568853304629e-08 0.000000000000000000e+00 1.389265876278341162e-08 0.000000000000000000e+00 5.052039611382083736e-07)
(2.306512079912526537e-06 7.664862212808238538e-08 0.000000000000000000e+00 1.396194455348571685e-08 0.000000000000000000e+00 5.063048262689071896e-07)
(2.331430940607094170e-06 7.686318249029835434e-08 0.000000000000000000e+00 1.403390961090428967e-08 0.000000000000000000e+00 5.078437385473760703e-07)
(2.018768100780524298e-06 4.768153374163346433e-08 0.000000000000000000e+00 7.301453682053639347e-09 0.000000000000000000e+00 4.810011845173818981e-07)
(2.037583317972844578e-06 4.756844911213296817e-08 0.000000000000000000e+00 7.302461742915377313e-09 0.000000000000000000e+00 4.820779452657327078e-07)
(1.305931895460095420e-06 1.727314308907219585e-08 0.000000000000000000e+00 2.184499933856040929e-09 0.000000000000000000e+00 3.843007443543296238e-07)
(3.528492622784156098e-07 5.177555159979061995e-10 0.000000000000000000e+00 1.107757206994549712e-10 0.000000000000000000e+00 1.565882144506684400e-07)
(1.325908429414245127e-06 1.723324498955415961e-08 0.000000000000000000e+00 2.186098254593483650e-09 0.000000000000000000e+00 3.846757836166365213e-07)
(2.105371235361060650e-06 4.728344598151522366e-08 0.000000000000000000e+00 7.287865679580704804e-09 0.000000000000000000e+00 4.823947117300760242e-07)
(2.486894941491203333e-06 7.641055325742154632e-08 0.000000000000000000e+00 1.392774779915086904e-08 0.000000000000000000e+00 5.080274789184848222e-07)
(2.500173395774613702e-06 7.591782714006491788e-08 0.000000000000000000e+00 1.381738030595127603e-08 0.000000000000000000e+00 5.051739559339056157e-07)
(2.513171410336251093e-06 7.535572055102614668e-08 0.000000000000000000e+00 1.367864056794763884e-08 0.000000000000000000e+00 5.022344233635889671e-07)
(2.525275323298838034e-06 7.485564747717166521e-08 0.000000000000000000e+00 1.353944910845362264e-08 0.000000000000000000e+00 4.995898471118448406e-07)
(2.561445827239988634e-06 8.838805020048076718e-08 0.000000000000000000e+00 1.807947689940573106e-08 0.000000000000000000e+00 4.933144336507673154e-07)
(2.569504549606493388e-06 8.661173875504491520e-08 0.000000000000000000e+00 1.745913482163371876e-08 0.000000000000000000e+00 4.900948660877839395e-07)
(2.576630312860889008e-06 8.485874733413288625e-08 0.000000000000000000e+00 1.683971342215805620e-08 0.000000000000000000e+00 4.863376427072725858e-07)
(2.579850033723737531e-06 8.299867264635313602e-08 0.000000000000000000e+00 1.622259730352839657e-08 0.000000000000000000e+00 4.818070878454129626e-07)
(2.579800529483712954e-06 8.104178080774339153e-08 0.000000000000000000e+00 1.553988751505633594e-08 0.000000000000000000e+00 4.771007992354927259e-07)
(2.574945665913096074e-06 7.901653418602334012e-08 0.000000000000000000e+00 1.483834788605665182e-08 0.000000000000000000e+00 4.720760339791363500e-07)
(2.567484839673928360e-06 7.678843954985865413e-08 0.000000000000000000e+00 1.411799398428343684e-08 0.000000000000000000e+00 4.670346753907586772e-07)
(2.529412333902171862e-06 6.758216397095060994e-08 0.000000000000000000e+00 1.141974790777373890e-08 0.000000000000000000e+00 4.621421057990656240e-07)
(2.520601163453169551e-06 6.661200551390124792e-08 0.000000000000000000e+00 1.113472260238881757e-08 0.000000000000000000e+00 4.570550631064593648e-07)
(2.075929758046293372e-06 3.889010652613481979e-08 0.000000000000000000e+00 5.650894074802149327e-09 0.000000000000000000e+00 4.201601962718730597e-07)
(2.060268005648311687e-06 3.787097011134362488e-08 0.000000000000000000e+00 5.428559213418164354e-09 0.000000000000000000e+00 4.130977656150561453e-07)
(2.481802606466489028e-06 6.241588404311433165e-08 0.000000000000000000e+00 1.003927119682456135e-08 0.000000000000000000e+00 4.383498532048067438e-07)
(2.527556340916455947e-06 7.162381926631630247e-08 0.000000000000000000e+00 1.238105455550047662e-08 0.000000000000000000e+00 4.354222843344771022e-07)
(2.454190311298800029e-06 6.003632414734644329e-08 0.000000000000000000e+00 9.328107453802361892e-09 0.000000000000000000e+00 4.277281527967738229e-07)
(3.171605140562396269e-07 2.056026882002404127e-10 0.000000000000000000e+00 6.998994201138274283e-11 0.000000000000000000e+00 1.163906884971294928e-07)
(2.418703430523308152e-06 5.788570551808534796e-08 0.000000000000000000e+00 8.632913118632665860e-09 0.000000000000000000e+00 4.172734453696625224e-07)
(2.482614532778503266e-06 6.930786054901682836e-08 0.000000000000000000e+00 1.119923170418594845e-08 0.000000000000000000e+00 4.176494803190106643e-07)
(2.431366208755280170e-06 6.371261986946005413e-08 0.000000000000000000e+00 9.787713467873354890e-09 0.000000000000000000e+00 4.115119707767382219e-07)
(1.896863808319562875e-06 3.130690783503210884e-08 0.000000000000000000e+00 3.901069948951274401e-09 0.000000000000000000e+00 3.655493789102562354e-07)
(1.874207513927295066e-06 3.056781119089249548e-08 0.000000000000000000e+00 3.737952637478824708e-09 0.000000000000000000e+00 3.611173889864033727e-07)
(2.420902499786104006e-06 6.709168275508355108e-08 0.000000000000000000e+00 1.013921195236989518e-08 0.000000000000000000e+00 4.072439386619151444e-07)
(2.366811208371877048e-06 6.198623735652102082e-08 0.000000000000000000e+00 8.962981143738664991e-09 0.000000000000000000e+00 4.022800939545349737e-07)
(2.257919439026219390e-06 5.084553620980120869e-08 0.000000000000000000e+00 6.583363692917053670e-09 0.000000000000000000e+00 3.925521603714231581e-07)
(2.216479970706560847e-06 4.916472522154222724e-08 0.000000000000000000e+00 6.187394449471999287e-09 0.000000000000000000e+00 3.887856939066708656e-07)
(2.374287785318771029e-06 6.671976030909094579e-08 0.000000000000000000e+00 9.364137245680714552e-09 0.000000000000000000e+00 4.050282425949097225e-07)
(2.341272107409214819e-06 7.925264120638237981e-08 0.000000000000000000e+00 1.249731073902011039e-08 0.000000000000000000e+00 4.089665722772189492e-07)
(2.096160013548301412e-06 4.418735298035383237e-08 0.000000000000000000e+00 5.138736090351449329e-09 0.000000000000000000e+00 3.790533598719491673e-07)
(2.314676824621465789e-06 7.618484607173748428e-08 0.000000000000000000e+00 1.134077377959611563e-08 0.000000000000000000e+00 4.079866028278203851e-07)
(2.236323902059785038e-06 5.809799848565012668e-08 0.000000000000000000e+00 7.263189599176154059e-09 0.000000000000000000e+00 3.953954833298093573e-07)
(2.188327143778381530e-06 8.266183054543410270e-08 0.000000000000000000e+00 1.348250140481028579e-08 0.000000000000000000e+00 4.088463560045965580e-07)
(2.257220112029599005e-06 7.070077413800574768e-08 0.000000000000000000e+00 9.663137518879448931e-09 0.000000000000000000e+00 4.067178342098395578e-07)
(1.865677544480398600e-06 3.592419282382818148e-08 0.000000000000000000e+00 3.659215312815699747e-09 0.000000000000000000e+00 3.596007493798706471e-07)
(2.169621177246239257e-06 7.778856779729101705e-08 0.000000000000000000e+00 1.155800094383899945e-08 0.000000000000000000e+00 4.119734668000637284e-07)
(1.929936103428761441e-06 8.525122791729097163e-08 0.000000000000000000e+00 1.567974120818721765e-08 0.000000000000000000e+00 4.097489149935429169e-07)
(1.873786272698292190e-06 8.587775329825390665e-08 0.000000000000000000e+00 1.612607715989618922e-08 0.000000000000000000e+00 4.108393565217397225e-07)
(1.885622771313550963e-06 8.516688961095006023e-08 0.000000000000000000e+00 1.546878503244725343e-08 0.000000000000000000e+00 4.138177192443017389e-07)
(1.893630055103667341e-06 8.430877285319393160e-08 0.000000000000000000e+00 1.479991953001982471e-08 0.000000000000000000e+00 4.162838347217149030e-07)
(1.897930979577366992e-06 8.346172462199911133e-08 0.000000000000000000e+00 1.418217930690289512e-08 0.000000000000000000e+00 4.183858140033875349e-07)
(1.897714405728228221e-06 8.293580672721520687e-08 0.000000000000000000e+00 1.375816664905400733e-08 0.000000000000000000e+00 4.212922149177349133e-07)
(1.730996638101313514e-06 8.512360063049420867e-08 0.000000000000000000e+00 1.612408079423265716e-08 0.000000000000000000e+00 4.187189362279313631e-07)
(1.719709339540673964e-06 8.499907820689967968e-08 0.000000000000000000e+00 1.603130564198809608e-08 0.000000000000000000e+00 4.210430699316039253e-07)
(1.703123783249229523e-06 8.510603482056815601e-08 0.000000000000000000e+00 1.611975744953576741e-08 0.000000000000000000e+00 4.238956517776972959e-07)
(1.514484937358585424e-06 8.539419865769583845e-08 0.000000000000000000e+00 1.883510544017808481e-08 0.000000000000000000e+00 4.164378208046550637e-07)
(4.568977427269049181e-06 2.630510006227973766e-07 0.000000000000000000e+00 5.881188118290717224e-08 0.000000000000000000e+00 1.278158017217041987e-06)
(6.084060830574542778e-06 2.143857846011319328e-07 0.000000000000000000e+00 2.696583654770533289e-08 0.000000000000000000e+00 1.327745169372704727e-06)
(5.833714058726338065e-06 2.431608511154452751e-07 0.000000000000000000e+00 3.596100154934122992e-08 0.000000000000000000e+00 1.349276725869681444e-06)
(4.860235964974121857e-06 2.662134001205403039e-07 0.000000000000000000e+00 5.489142022362858286e-08 0.000000000000000000e+00 1.322319401193706902e-06)
(4.523975699086983776e-06 2.665685765812801784e-07 0.000000000000000000e+00 6.089456909567917604e-08 0.000000000000000000e+00 1.306200568397810115e-06)
(4.621177705304638601e-06 2.686467937782484459e-07 0.000000000000000000e+00 5.975943321317910316e-08 0.000000000000000000e+00 1.320885819151133381e-06)
(4.484878517450718867e-06 2.697363316997903087e-07 0.000000000000000000e+00 6.317250346575020111e-08 0.000000000000000000e+00 1.320446911323699265e-06)
(4.877514537063693488e-06 2.711318610210219226e-07 0.000000000000000000e+00 5.674522337702497707e-08 0.000000000000000000e+00 1.354290088576359692e-06)
(4.747508804922690812e-06 2.733385219559530392e-07 0.000000000000000000e+00 6.033691123626304654e-08 0.000000000000000000e+00 1.352667102001146536e-06)
(5.166288954730445154e-06 2.710334387015098180e-07 0.000000000000000000e+00 5.296429797636901098e-08 0.000000000000000000e+00 1.384418161460686772e-06)
(5.781615969946235389e-06 1.856227370138022624e-07 0.000000000000000000e+00 2.217903454721613345e-08 0.000000000000000000e+00 1.353972576084921956e-06)
(5.816697445107360244e-06 2.010987631854940548e-07 0.000000000000000000e+00 2.604611581523339881e-08 0.000000000000000000e+00 1.377520057706805119e-06)
(5.413581010576148924e-06 2.700205034175711528e-07 0.000000000000000000e+00 5.081278894818770470e-08 0.000000000000000000e+00 1.412692728631021257e-06)
(5.833862586748798910e-06 2.025563987860825394e-07 0.000000000000000000e+00 2.678146487031571153e-08 0.000000000000000000e+00 1.391724406303313147e-06)
(5.749963384650434223e-06 2.563769440938898456e-07 0.000000000000000000e+00 4.327449913105212150e-08 0.000000000000000000e+00 1.430340629993188681e-06)
(5.490899796251184995e-06 1.573386421208771357e-07 0.000000000000000000e+00 1.850817209959695753e-08 0.000000000000000000e+00 1.335980529694395694e-06)
(5.688808621679820488e-06 2.667457739265626133e-07 0.000000000000000000e+00 4.851474718788333279e-08 0.000000000000000000e+00 1.437375608906769126e-06)
(5.824505765157916949e-06 2.483129811161677021e-07 0.000000000000000000e+00 4.193087185940330954e-08 0.000000000000000000e+00 1.437220625094909981e-06)
(5.732230756611182672e-06 1.796924082152495640e-07 0.000000000000000000e+00 2.329868003971217651e-08 0.000000000000000000e+00 1.390391994230785593e-06)
(4.971012412022580260e-06 1.238410520506908260e-07 0.000000000000000000e+00 1.449253176620917810e-08 0.000000000000000000e+00 1.280332530943977453e-06)
(5.851001624977266312e-06 1.915293829138761321e-07 0.000000000000000000e+00 2.638618457194721321e-08 0.000000000000000000e+00 1.416997836804367826e-06)
(5.947140851011922252e-06 2.261028475075032817e-07 0.000000000000000000e+00 3.625813510470399205e-08 0.000000000000000000e+00 1.444751212579672893e-06)
(5.994340714232937055e-06 2.415503945692371521e-07 0.000000000000000000e+00 4.104356229638273048e-08 0.000000000000000000e+00 1.456922036011401778e-06)
(5.034534697758329760e-06 1.211593248186332467e-07 0.000000000000000000e+00 1.455054269509853520e-08 0.000000000000000000e+00 1.307339579692351033e-06)
(5.093414343510086898e-06 1.234165219802567067e-07 0.000000000000000000e+00 1.507446712090446694e-08 0.000000000000000000e+00 1.320031186972322153e-06)
(6.101928876650633223e-06 2.322467950091029035e-07 0.000000000000000000e+00 3.902433503173988310e-08 0.000000000000000000e+00 1.468780032540120946e-06)
(6.144397677002758713e-06 2.484027733657717243e-07 0.000000000000000000e+00 4.439078866267893498e-08 0.000000000000000000e+00 1.478275762202162047e-06)
(6.051488027305340425e-06 2.013451605127509235e-07 0.000000000000000000e+00 3.087620871686603073e-08 0.000000000000000000e+00 1.456669607155204954e-06)
(3.678575038621075158e-06 6.147596374758149750e-08 0.000000000000000000e+00 6.961875535221441230e-09 0.000000000000000000e+00 1.098285935021134155e-06)
(6.298899783169496067e-06 2.201347273289136082e-07 0.000000000000000000e+00 3.545937697242001612e-08 0.000000000000000000e+00 1.491944717595306576e-06)
(6.328000820434467156e-06 2.550322435364077129e-07 0.000000000000000000e+00 4.769218937827392783e-08 0.000000000000000000e+00 1.504704644173625534e-06)
(6.424699981843041213e-06 2.270993973864999411e-07 0.000000000000000000e+00 3.771978615489835193e-08 0.000000000000000000e+00 1.513794867218708702e-06)
(5.500957870013805150e-06 1.383781276813548719e-07 0.000000000000000000e+00 1.906393299097516801e-08 0.000000000000000000e+00 1.402638327426079951e-06)
(5.673478503523246584e-06 1.453899016546692157e-07 0.000000000000000000e+00 2.032013162465804386e-08 0.000000000000000000e+00 1.429786031795613702e-06)
(6.618664789719753446e-06 2.355017477514479217e-07 0.000000000000000000e+00 4.050007267804202117e-08 0.000000000000000000e+00 1.540061652578542877e-06)
(6.680092906213433771e-06 2.364248433036432467e-07 0.000000000000000000e+00 4.101653751595734543e-08 0.000000000000000000e+00 1.547987826413838204e-06)
(6.713203052366221478e-06 2.622286219965695864e-07 0.000000000000000000e+00 5.091758939218097720e-08 0.000000000000000000e+00 1.552513969207563433e-06)
(6.779009951782166330e-06 2.663038922163495050e-07 0.000000000000000000e+00 5.259256411130040703e-08 0.000000000000000000e+00 1.560386769201638407e-06)
(6.861194188892844872e-06 2.713146479981224835e-07 0.000000000000000000e+00 5.435821233274065165e-08 0.000000000000000000e+00 1.570914889964201509e-06)
(6.936206904794444300e-06 2.758346894976839670e-07 0.000000000000000000e+00 5.603621044305064860e-08 0.000000000000000000e+00 1.578298368033194586e-06)
(7.009376192588900715e-06 2.801756018403014594e-07 0.000000000000000000e+00 5.767758909701006809e-08 0.000000000000000000e+00 1.583819127086417703e-06)
(7.080634893899749595e-06 2.841749556334816053e-07 0.000000000000000000e+00 5.914837454300147706e-08 0.000000000000000000e+00 1.587776536403802922e-06)
(7.175135212054376513e-06 2.428717253098301079e-07 0.000000000000000000e+00 4.388704217634298328e-08 0.000000000000000000e+00 1.601315822198704433e-06)
(7.246790345357923761e-06 2.429708861102112642e-07 0.000000000000000000e+00 4.410912958817574735e-08 0.000000000000000000e+00 1.604021560580103941e-06)
(7.323175853721286676e-06 2.433593752566288404e-07 0.000000000000000000e+00 4.432917395731118916e-08 0.000000000000000000e+00 1.607517823403564006e-06)
(7.402293236426526694e-06 2.440406044066644098e-07 0.000000000000000000e+00 4.455766301461511292e-08 0.000000000000000000e+00 1.612403869887701929e-06)
(6.409588719977302229e-06 1.513888696296658778e-07 0.000000000000000000e+00 2.318211544051718819e-08 0.000000000000000000e+00 1.527178760842482047e-06)
(6.469327034562909789e-06 1.510298259310018349e-07 0.000000000000000000e+00 2.318531603375319784e-08 0.000000000000000000e+00 1.530597476218495071e-06)
(4.527236055542716524e-06 7.015848189255118405e-08 0.000000000000000000e+00 9.528804237017347477e-09 0.000000000000000000e+00 1.270073333586462383e-06)
(4.579615771465735019e-06 7.056983320744724177e-08 0.000000000000000000e+00 9.607161493737400491e-09 0.000000000000000000e+00 1.272834670234089092e-06)
(4.610566051370608407e-06 7.051038301918433051e-08 0.000000000000000000e+00 9.615235399596163147e-09 0.000000000000000000e+00 1.272848304168901342e-06)
(6.684553672270466935e-06 1.501249409912906488e-07 0.000000000000000000e+00 2.313897353266562321e-08 0.000000000000000000e+00 1.531603209742785397e-06)
(7.895891439233507545e-06 2.426035065922807220e-07 0.000000000000000000e+00 4.422059926229804971e-08 0.000000000000000000e+00 1.612987245565972226e-06)
(7.938050531583330078e-06 2.410391011696736838e-07 0.000000000000000000e+00 4.387018247138939958e-08 0.000000000000000000e+00 1.603927310089934331e-06)
(7.979319227816521510e-06 2.392544127494757606e-07 0.000000000000000000e+00 4.342968380322789788e-08 0.000000000000000000e+00 1.594594294179179867e-06)
(8.017758068472603366e-06 2.376663215874343742e-07 0.000000000000000000e+00 4.298762556047688744e-08 0.000000000000000000e+00 1.586196046186480874e-06)
(8.132508026061503653e-06 2.805834723790345220e-07 0.000000000000000000e+00 5.738608050670328243e-08 0.000000000000000000e+00 1.566281785079804516e-06)
(8.158176944999517822e-06 2.749922705472306434e-07 0.000000000000000000e+00 5.543275305867959855e-08 0.000000000000000000e+00 1.556051199828504653e-06)
(8.180801243332220770e-06 2.694265227858356449e-07 0.000000000000000000e+00 5.346609011534462493e-08 0.000000000000000000e+00 1.544122015595382519e-06)
(8.191023857071764492e-06 2.635207856521357569e-07 0.000000000000000000e+00 5.150674643869571864e-08 0.000000000000000000e+00 1.529737503908979994e-06)
(8.177967678462757129e-06 2.569024451605272549e-07 0.000000000000000000e+00 4.926144342272489399e-08 0.000000000000000000e+00 1.512409533576398590e-06)
(8.162577760943902388e-06 2.504824133696752695e-07 0.000000000000000000e+00 4.703756279879606211e-08 0.000000000000000000e+00 1.496481027713750073e-06)
(8.138926941765742683e-06 2.434193533730337078e-07 0.000000000000000000e+00 4.475404093017513820e-08 0.000000000000000000e+00 1.480499920988593941e-06)
(8.018237098469282775e-06 2.142354597878973781e-07 0.000000000000000000e+00 3.620060086764003389e-08 0.000000000000000000e+00 1.464990475382928157e-06)
(7.990305688145948708e-06 2.111600574790511180e-07 0.000000000000000000e+00 3.529707064956990434e-08 0.000000000000000000e+00 1.448864550047367518e-06)
(6.570317684215958458e-06 1.230871871552062002e-07 0.000000000000000000e+00 1.788507974674728011e-08 0.000000000000000000e+00 1.329807021200364917e-06)
(6.520748237876350086e-06 1.198616204023923350e-07 0.000000000000000000e+00 1.718138991046702800e-08 0.000000000000000000e+00 1.307454428171541159e-06)
(7.854905249465767161e-06 1.975462729964400250e-07 0.000000000000000000e+00 3.177429333794702279e-08 0.000000000000000000e+00 1.387377285393094992e-06)
(7.987078037295238412e-06 2.263312688815379027e-07 0.000000000000000000e+00 3.912413239537776370e-08 0.000000000000000000e+00 1.375934418496816109e-06)
(7.755241383703467394e-06 1.897147843055966354e-07 0.000000000000000000e+00 2.947681955401265090e-08 0.000000000000000000e+00 1.351620962837676116e-06)
(4.419956228667660237e-06 5.399109603872610913e-08 0.000000000000000000e+00 6.708049072158437651e-09 0.000000000000000000e+00 1.007725082394407590e-06)
(7.631009323300229469e-06 1.826294009095399377e-07 0.000000000000000000e+00 2.723684088928317525e-08 0.000000000000000000e+00 1.316497720141145974e-06)
(7.820579472570762350e-06 2.183685415169017674e-07 0.000000000000000000e+00 3.528891565464703082e-08 0.000000000000000000e+00 1.315620030505965788e-06)
(7.659179518402246527e-06 2.007458003117835425e-07 0.000000000000000000e+00 3.084291727959731432e-08 0.000000000000000000e+00 1.296291391078498764e-06)
(5.965648683857270816e-06 9.846062098712622315e-08 0.000000000000000000e+00 1.226895056543398635e-08 0.000000000000000000e+00 1.149654955713058966e-06)
(5.885023033221122606e-06 9.598326104894389345e-08 0.000000000000000000e+00 1.173724575084389056e-08 0.000000000000000000e+00 1.133910549450149413e-06)
(7.602006884947970690e-06 2.107138617410076780e-07 0.000000000000000000e+00 3.184683201247220275e-08 0.000000000000000000e+00 1.278778866298996843e-06)
(7.420347977851859126e-06 1.943749009997910509e-07 0.000000000000000000e+00 2.810889887826256003e-08 0.000000000000000000e+00 1.261183814805694602e-06)
(7.067283405911765662e-06 1.591469716498267262e-07 0.000000000000000000e+00 2.060608450928448182e-08 0.000000000000000000e+00 1.228684664100654665e-06)
(6.926535016220567012e-06 1.536408704388213770e-07 0.000000000000000000e+00 1.933587529227319359e-08 0.000000000000000000e+00 1.214959033442585681e-06)
(7.419675940466687043e-06 2.085022823901782763e-07 0.000000000000000000e+00 2.926372236785075270e-08 0.000000000000000000e+00 1.265711948568701463e-06)
(7.304803560122529378e-06 2.472712361879739754e-07 0.000000000000000000e+00 3.899281291575674386e-08 0.000000000000000000e+00 1.275979685632965318e-06)
(6.529581632204678304e-06 1.376454832552376468e-07 0.000000000000000000e+00 1.600753465769729762e-08 0.000000000000000000e+00 1.180754526173549204e-06)
(7.198669794509567093e-06 2.369379153862350694e-07 0.000000000000000000e+00 3.527084071570226947e-08 0.000000000000000000e+00 1.268838141067653161e-06)
(6.944927917244363644e-06 1.804769269507710360e-07 0.000000000000000000e+00 2.256551619857177970e-08 0.000000000000000000e+00 1.227821145072402116e-06)
(6.783826887421563191e-06 2.562563029564297129e-07 0.000000000000000000e+00 4.179781800270869524e-08 0.000000000000000000e+00 1.267421024542860410e-06)
(6.986153440561021900e-06 2.188237161819647562e-07 0.000000000000000000e+00 2.990881681011727371e-08 0.000000000000000000e+00 1.258792973090452262e-06)
(5.765021446551462435e-06 1.110085543815994948e-07 0.000000000000000000e+00 1.130741509902926210e-08 0.000000000000000000e+00 1.111172515321615003e-06)
(6.693304666345368075e-06 2.399825536107811170e-07 0.000000000000000000e+00 3.565815126680636466e-08 0.000000000000000000e+00 1.270934583389210965e-06)
(5.942873266053725287e-06 2.626018078420007502e-07 0.000000000000000000e+00 4.831747660203334712e-08 0.000000000000000000e+00 1.261978401317046177e-06)
(5.761848813247404325e-06 2.640769401638746539e-07 0.000000000000000000e+00 4.959022316289813152e-08 0.000000000000000000e+00 1.263318525067781703e-06)
(5.788823197764417305e-06 2.614660632129567723e-07 0.000000000000000000e+00 4.749204641021803730e-08 0.000000000000000000e+00 1.270409972030229874e-06)