/*--------------------------------*- C++ -*----------------------------------*\
| =========                 |                                                 |
| \\      /  F ield         | OpenFOAM: The Open Source CFD Toolbox           |
|  \\    /   O peration     | Version:  2.3.x                                 |
|   \\  /    A nd           | Web:      www.OpenFOAM.org                      |
|    \\/     M anipulation  |                                                 |
\*---------------------------------------------------------------------------*/
FoamFile
{
    version     2.0;
    format      ascii;
    class       volScalarField;
    location    "0";
    object      ccy;
}
// * * * * * * * * * * * * * * * * * * * * * * * * * * * * * * * * * * * * * //

dimensions      [0 1 0 0 0 0 0];

internalField   nonuniform List<scalar> 
16
(
0.0125
0.0125
0.0125
0.0125
0.0375
0.0375
0.0375
0.0375
0.0625
0.0625
0.0625
0.0625
0.0875
0.0875
0.0875
0.0875
)
;

boundaryField
{
    movingWall
    {
        type            calculated;
        value           uniform 0.1;
    }
    fixedWalls
    {
        type            calculated;
        value           nonuniform List<scalar> 
12
(
0.0125
0.0375
0.0625
0.0875
0.0125
0.0375
0.0625
0.0875
0
0
0
0
)
;
    }
    frontAndBack
    {
        type            empty;
    }
}


// ************************************************************************* //
